********************************************************************************
*                       GENERAL UTILITY LATTICE PROGRAM                        *
*                                 Julian Gale                                  *
*                      Nanochemistry Research Institute                        *
*                           Department of Chemistry                            *
*                    Curtin University, Western Australia                      *
********************************************************************************
* Version = 4.2.0 * Last modified =  20th January 2014                         *
********************************************************************************
*  fit          - perform fitting run                                          *
*  conv         - constant volume calculation                                  *
*  molecule     - molecule option activated, Coulomb subtract within molecule  *
********************************************************************************

  Job Started  at 12:36.53  8th May        2018                               

  Number of CPUs =     1

  Host name      = vingilot                                


  Total number of configurations input =  32

********************************************************************************
*  Input for Configuration =   1                                               *
********************************************************************************

  Formula = CNH6PbI3                                                    

  Number of irreducible atoms/shells =      12


  Total number atoms/shells =      12

  Dimensionality = 3               :  Bulk   



  Cartesian lattice vectors (Angstroms) :

        6.310000    0.000000    0.000000
        0.000000    6.310000    0.000000
        0.000000    0.000000    6.310000

  Cell parameters (Angstroms/Degrees):

  a =       6.3100    alpha =  90.0000
  b =       6.3100    beta  =  90.0000
  c =       6.3100    gamma =  90.0000

  Initial cell volume =         251.239591 Angs**3

  Temperature of configuration =  0.000     K 

  Pressure of configuration =         0.000 GPa 

  Fractional coordinates of asymmetric unit :

--------------------------------------------------------------------------------
   No.  Atomic       x           y          z         Charge      Occupancy
        Label      (Frac)      (Frac)     (Frac)        (e)         (Frac)  
--------------------------------------------------------------------------------
      1 C1    c    0.926220    0.000030    0.986320     0.77100    1.000000    
      2 N1    c    0.153070 *  0.999890 *  0.046240 *  -1.10000    1.000000    
      3 H1    c    0.913420 *  0.999930 *  0.812530 *   0.02300    1.000000    
      4 H1    c    0.850990 *  0.143050 *  0.051610 *   0.02300    1.000000    
      5 H1    c    0.850780 *  0.857200 *  0.051780 *   0.02300    1.000000    
      6 H2    c    0.232080 *  0.133750 *  0.988930 *   0.54000    1.000000    
      7 H2    c    0.231910 *  0.865890 *  0.989050 *   0.54000    1.000000    
      8 H2    c    0.176810 *  0.999950 *  0.210250 *   0.54000    1.000000    
      9 Pb    c    0.487890 *  0.499920 *  0.491270 *   2.03000    1.000000    
     10 I     c    0.438800 *  0.499940 *  0.988060 *  -1.13000    1.000000    
     11 I     c    0.447140 *  0.999880 *  0.526410 *  -1.13000    1.000000    
     12 I     c    0.974130 *  0.499910 *  0.454690 *  -1.13000    1.000000    
--------------------------------------------------------------------------------



  Molecule list generated from bond lengths :

  Bonds between the following atom types will be excluded : 

   H1    Core   - H2    Core
   H1    Core   - H1    Core
   H2    Core   - H2    Core
   H1    Core   - N1    Core
   H2    Core   - C1    Core
   Pb    Core   - Pb    Core
   I     Core   - I     Core
   Br    Core   - Br    Core
   I     Core   - Pb    Core
   Br    Core   - Pb    Core
   C1    Core   - Pb    Core
   N1    Core   - Pb    Core
   H1    Core   - Pb    Core
   H2    Core   - Pb    Core
   C1    Core   - I     Core
   C1    Core   - Br    Core
   N1    Core   - I     Core
   N1    Core   - Br    Core
   H1    Core   - I     Core
   H1    Core   - Br    Core
   H2    Core   - I     Core
   H2    Core   - Br    Core


  Total number of molecules =     1

--------------------------------------------------------------------------------
Molecule No./:  Atoms
Periodicity  :  
--------------------------------------------------------------------------------
     1  0    : C1   c     1 N1   c     2 H1   c     3 H1   c     4 H1   c     5
             : H2   c     6 H2   c     7 H2   c     8
--------------------------------------------------------------------------------


********************************************************************************
*  Input for Configuration =   2                                               *
********************************************************************************

  Formula = CNH6PbI3                                                    

  Number of irreducible atoms/shells =      12


  Total number atoms/shells =      12

  Dimensionality = 3               :  Bulk   



  Cartesian lattice vectors (Angstroms) :

        6.300000    0.000000    0.000000
        0.000000    6.300000    0.000000
        0.000000    0.000000    6.300000

  Cell parameters (Angstroms/Degrees):

  a =       6.3000    alpha =  90.0000
  b =       6.3000    beta  =  90.0000
  c =       6.3000    gamma =  90.0000

  Initial cell volume =         250.047000 Angs**3

  Temperature of configuration =  0.000     K 

  Pressure of configuration =         0.000 GPa 

  Fractional coordinates of asymmetric unit :

--------------------------------------------------------------------------------
   No.  Atomic       x           y          z         Charge      Occupancy
        Label      (Frac)      (Frac)     (Frac)        (e)         (Frac)  
--------------------------------------------------------------------------------
      1 C1    c    0.926080    0.000030    0.986210     0.77100    1.000000    
      2 N1    c    0.153160 *  0.999900 *  0.046210 *  -1.10000    1.000000    
      3 H1    c    0.913130 *  0.999930 *  0.812190 *   0.02300    1.000000    
      4 H1    c    0.850710 *  0.143270 *  0.051610 *   0.02300    1.000000    
      5 H1    c    0.850510 *  0.857000 *  0.051780 *   0.02300    1.000000    
      6 H2    c    0.232380 *  0.133890 *  0.988870 *   0.54000    1.000000    
      7 H2    c    0.232220 *  0.865750 *  0.988980 *   0.54000    1.000000    
      8 H2    c    0.177200 *  0.999950 *  0.210400 *   0.54000    1.000000    
      9 Pb    c    0.487850 *  0.499900 *  0.491480 *   2.03000    1.000000    
     10 I     c    0.438730 *  0.499950 *  0.988110 *  -1.13000    1.000000    
     11 I     c    0.446960 *  0.999900 *  0.526580 *  -1.13000    1.000000    
     12 I     c    0.974280 *  0.499890 *  0.454710 *  -1.13000    1.000000    
--------------------------------------------------------------------------------



  Molecule list generated from bond lengths :

  Bonds between the following atom types will be excluded : 

   H1    Core   - H2    Core
   H1    Core   - H1    Core
   H2    Core   - H2    Core
   H1    Core   - N1    Core
   H2    Core   - C1    Core
   Pb    Core   - Pb    Core
   I     Core   - I     Core
   Br    Core   - Br    Core
   I     Core   - Pb    Core
   Br    Core   - Pb    Core
   C1    Core   - Pb    Core
   N1    Core   - Pb    Core
   H1    Core   - Pb    Core
   H2    Core   - Pb    Core
   C1    Core   - I     Core
   C1    Core   - Br    Core
   N1    Core   - I     Core
   N1    Core   - Br    Core
   H1    Core   - I     Core
   H1    Core   - Br    Core
   H2    Core   - I     Core
   H2    Core   - Br    Core


  Total number of molecules =     1

--------------------------------------------------------------------------------
Molecule No./:  Atoms
Periodicity  :  
--------------------------------------------------------------------------------
     1  0    : C1   c     1 N1   c     2 H1   c     3 H1   c     4 H1   c     5
             : H2   c     6 H2   c     7 H2   c     8
--------------------------------------------------------------------------------


********************************************************************************
*  Input for Configuration =   3                                               *
********************************************************************************

  Formula = CNH6PbI3                                                    

  Number of irreducible atoms/shells =      12


  Total number atoms/shells =      12

  Dimensionality = 3               :  Bulk   



  Cartesian lattice vectors (Angstroms) :

        6.320000    0.000000    0.000000
        0.000000    6.320000    0.000000
        0.000000    0.000000    6.320000

  Cell parameters (Angstroms/Degrees):

  a =       6.3200    alpha =  90.0000
  b =       6.3200    beta  =  90.0000
  c =       6.3200    gamma =  90.0000

  Initial cell volume =         252.435968 Angs**3

  Temperature of configuration =  0.000     K 

  Pressure of configuration =         0.000 GPa 

  Fractional coordinates of asymmetric unit :

--------------------------------------------------------------------------------
   No.  Atomic       x           y          z         Charge      Occupancy
        Label      (Frac)      (Frac)     (Frac)        (e)         (Frac)  
--------------------------------------------------------------------------------
      1 C1    c    0.926360    0.000040    0.986350     0.77100    1.000000    
      2 N1    c    0.152930 *  0.999890 *  0.046190 *  -1.10000    1.000000    
      3 H1    c    0.913390 *  0.999930 *  0.812850 *   0.02300    1.000000    
      4 H1    c    0.851110 *  0.142770 *  0.051460 *   0.02300    1.000000    
      5 H1    c    0.850900 *  0.857480 *  0.051630 *   0.02300    1.000000    
      6 H2    c    0.231960 *  0.133470 *  0.989050 *   0.54000    1.000000    
      7 H2    c    0.231790 *  0.866180 *  0.989160 *   0.54000    1.000000    
      8 H2    c    0.176860 *  0.999950 *  0.209880 *   0.54000    1.000000    
      9 Pb    c    0.487910 *  0.499900 *  0.491360 *   2.03000    1.000000    
     10 I     c    0.438760 *  0.499950 *  0.988060 *  -1.13000    1.000000    
     11 I     c    0.447080 *  0.999890 *  0.526440 *  -1.13000    1.000000    
     12 I     c    0.974170 *  0.499900 *  0.454700 *  -1.13000    1.000000    
--------------------------------------------------------------------------------



  Molecule list generated from bond lengths :

  Bonds between the following atom types will be excluded : 

   H1    Core   - H2    Core
   H1    Core   - H1    Core
   H2    Core   - H2    Core
   H1    Core   - N1    Core
   H2    Core   - C1    Core
   Pb    Core   - Pb    Core
   I     Core   - I     Core
   Br    Core   - Br    Core
   I     Core   - Pb    Core
   Br    Core   - Pb    Core
   C1    Core   - Pb    Core
   N1    Core   - Pb    Core
   H1    Core   - Pb    Core
   H2    Core   - Pb    Core
   C1    Core   - I     Core
   C1    Core   - Br    Core
   N1    Core   - I     Core
   N1    Core   - Br    Core
   H1    Core   - I     Core
   H1    Core   - Br    Core
   H2    Core   - I     Core
   H2    Core   - Br    Core


  Total number of molecules =     1

--------------------------------------------------------------------------------
Molecule No./:  Atoms
Periodicity  :  
--------------------------------------------------------------------------------
     1  0    : C1   c     1 N1   c     2 H1   c     3 H1   c     4 H1   c     5
             : H2   c     6 H2   c     7 H2   c     8
--------------------------------------------------------------------------------


********************************************************************************
*  Input for Configuration =   4                                               *
********************************************************************************

  Formula = CNH6PbI3                                                    

  Number of irreducible atoms/shells =      12


  Total number atoms/shells =      12

  Dimensionality = 3               :  Bulk   



  Cartesian lattice vectors (Angstroms) :

        6.310000    0.000000    0.000000
        0.000000    6.310000    0.000000
        0.000000    0.000000    6.310000

  Cell parameters (Angstroms/Degrees):

  a =       6.3100    alpha =  90.0000
  b =       6.3100    beta  =  90.0000
  c =       6.3100    gamma =  90.0000

  Initial cell volume =         251.239591 Angs**3

  Temperature of configuration =  0.000     K 

  Pressure of configuration =         0.000 GPa 

  Fractional coordinates of asymmetric unit :

--------------------------------------------------------------------------------
   No.  Atomic       x           y          z         Charge      Occupancy
        Label      (Frac)      (Frac)     (Frac)        (e)         (Frac)  
--------------------------------------------------------------------------------
      1 C1    c    0.926220    0.996780    0.986460     0.77100    1.000000    
      2 N1    c    0.153060 *  0.003000 *  0.046120 *  -1.10000    1.000000    
      3 H1    c    0.913460 *  0.983220 *  0.813180 *   0.02300    1.000000    
      4 H1    c    0.849860 *  0.143780 *  0.040600 *   0.02300    1.000000    
      5 H1    c    0.851900 *  0.858800 *  0.062720 *   0.02300    1.000000    
      6 H2    c    0.231040 *  0.132680 *  0.978680 *   0.54000    1.000000    
      7 H2    c    0.232940 *  0.865620 *  0.999340 *   0.54000    1.000000    
      8 H2    c    0.176760 *  0.015820 *  0.209620 *   0.54000    1.000000    
      9 Pb    c    0.487880 *  0.499920 *  0.491260 *   2.03000    1.000000    
     10 I     c    0.438800 *  0.499940 *  0.988060 *  -1.13000    1.000000    
     11 I     c    0.447140 *  0.999880 *  0.526420 *  -1.13000    1.000000    
     12 I     c    0.974140 *  0.499900 *  0.454700 *  -1.13000    1.000000    
--------------------------------------------------------------------------------



  Molecule list generated from bond lengths :

  Bonds between the following atom types will be excluded : 

   H1    Core   - H2    Core
   H1    Core   - H1    Core
   H2    Core   - H2    Core
   H1    Core   - N1    Core
   H2    Core   - C1    Core
   Pb    Core   - Pb    Core
   I     Core   - I     Core
   Br    Core   - Br    Core
   I     Core   - Pb    Core
   Br    Core   - Pb    Core
   C1    Core   - Pb    Core
   N1    Core   - Pb    Core
   H1    Core   - Pb    Core
   H2    Core   - Pb    Core
   C1    Core   - I     Core
   C1    Core   - Br    Core
   N1    Core   - I     Core
   N1    Core   - Br    Core
   H1    Core   - I     Core
   H1    Core   - Br    Core
   H2    Core   - I     Core
   H2    Core   - Br    Core


  Total number of molecules =     1

--------------------------------------------------------------------------------
Molecule No./:  Atoms
Periodicity  :  
--------------------------------------------------------------------------------
     1  0    : C1   c     1 N1   c     2 H1   c     3 H1   c     4 H1   c     5
             : H2   c     6 H2   c     7 H2   c     8
--------------------------------------------------------------------------------


********************************************************************************
*  Input for Configuration =   5                                               *
********************************************************************************

  Formula = CNH6PbI3                                                    

  Number of irreducible atoms/shells =      12


  Total number atoms/shells =      12

  Dimensionality = 3               :  Bulk   



  Cartesian lattice vectors (Angstroms) :

        6.280000    0.000000    0.000000
        0.000000    6.280000    0.000000
        0.000000    0.000000    6.280000

  Cell parameters (Angstroms/Degrees):

  a =       6.2800    alpha =  90.0000
  b =       6.2800    beta  =  90.0000
  c =       6.2800    gamma =  90.0000

  Initial cell volume =         247.673152 Angs**3

  Temperature of configuration =  0.000     K 

  Pressure of configuration =         0.000 GPa 

  Fractional coordinates of asymmetric unit :

--------------------------------------------------------------------------------
   No.  Atomic       x           y          z         Charge      Occupancy
        Label      (Frac)      (Frac)     (Frac)        (e)         (Frac)  
--------------------------------------------------------------------------------
      1 C1    c    0.925690    0.000030    0.986120     0.77100    1.000000    
      2 N1    c    0.153470 *  0.999910 *  0.046300 *  -1.10000    1.000000    
      3 H1    c    0.913050 *  0.999930 *  0.811510 *   0.02300    1.000000    
      4 H1    c    0.850330 *  0.143830 *  0.051860 *   0.02300    1.000000    
      5 H1    c    0.850120 *  0.856440 *  0.052030 *   0.02300    1.000000    
      6 H2    c    0.232720 *  0.134470 *  0.988630 *   0.54000    1.000000    
      7 H2    c    0.232560 *  0.865170 *  0.988750 *   0.54000    1.000000    
      8 H2    c    0.177220 *  0.999950 *  0.211110 *   0.54000    1.000000    
      9 Pb    c    0.487760 *  0.499870 *  0.491410 *   2.03000    1.000000    
     10 I     c    0.438850 *  0.499940 *  0.988120 *  -1.13000    1.000000    
     11 I     c    0.447110 *  0.999900 *  0.526640 *  -1.13000    1.000000    
     12 I     c    0.974340 *  0.499890 *  0.454660 *  -1.13000    1.000000    
--------------------------------------------------------------------------------



  Molecule list generated from bond lengths :

  Bonds between the following atom types will be excluded : 

   H1    Core   - H2    Core
   H1    Core   - H1    Core
   H2    Core   - H2    Core
   H1    Core   - N1    Core
   H2    Core   - C1    Core
   Pb    Core   - Pb    Core
   I     Core   - I     Core
   Br    Core   - Br    Core
   I     Core   - Pb    Core
   Br    Core   - Pb    Core
   C1    Core   - Pb    Core
   N1    Core   - Pb    Core
   H1    Core   - Pb    Core
   H2    Core   - Pb    Core
   C1    Core   - I     Core
   C1    Core   - Br    Core
   N1    Core   - I     Core
   N1    Core   - Br    Core
   H1    Core   - I     Core
   H1    Core   - Br    Core
   H2    Core   - I     Core
   H2    Core   - Br    Core


  Total number of molecules =     1

--------------------------------------------------------------------------------
Molecule No./:  Atoms
Periodicity  :  
--------------------------------------------------------------------------------
     1  0    : C1   c     1 N1   c     2 H1   c     3 H1   c     4 H1   c     5
             : H2   c     6 H2   c     7 H2   c     8
--------------------------------------------------------------------------------


********************************************************************************
*  Input for Configuration =   6                                               *
********************************************************************************

  Formula = CNH6PbI3                                                    

  Number of irreducible atoms/shells =      12


  Total number atoms/shells =      12

  Dimensionality = 3               :  Bulk   



  Cartesian lattice vectors (Angstroms) :

        6.350000    0.000000    0.000000
        0.000000    6.350000    0.000000
        0.000000    0.000000    6.350000

  Cell parameters (Angstroms/Degrees):

  a =       6.3500    alpha =  90.0000
  b =       6.3500    beta  =  90.0000
  c =       6.3500    gamma =  90.0000

  Initial cell volume =         256.047875 Angs**3

  Temperature of configuration =  0.000     K 

  Pressure of configuration =         0.000 GPa 

  Fractional coordinates of asymmetric unit :

--------------------------------------------------------------------------------
   No.  Atomic       x           y          z         Charge      Occupancy
        Label      (Frac)      (Frac)     (Frac)        (e)         (Frac)  
--------------------------------------------------------------------------------
      1 C1    c    0.927190    0.000020    0.986560     0.77100    1.000000    
      2 N1    c    0.152700 *  0.999900 *  0.046180 *  -1.10000    1.000000    
      3 H1    c    0.914390 *  0.999930 *  0.813900 *   0.02300    1.000000    
      4 H1    c    0.852310 *  0.142080 *  0.051420 *   0.02300    1.000000    
      5 H1    c    0.852100 *  0.858160 *  0.051590 *   0.02300    1.000000    
      6 H2    c    0.230980 *  0.132930 *  0.989110 *   0.54000    1.000000    
      7 H2    c    0.230820 *  0.866700 *  0.989220 *   0.54000    1.000000    
      8 H2    c    0.176010 *  0.999950 *  0.209180 *   0.54000    1.000000    
      9 Pb    c    0.487950 *  0.499960 *  0.491370 *   2.03000    1.000000    
     10 I     c    0.438550 *  0.499940 *  0.987930 *  -1.13000    1.000000    
     11 I     c    0.446820 *  0.999910 *  0.525900 *  -1.13000    1.000000    
     12 I     c    0.973390 *  0.499860 *  0.454790 *  -1.13000    1.000000    
--------------------------------------------------------------------------------



  Molecule list generated from bond lengths :

  Bonds between the following atom types will be excluded : 

   H1    Core   - H2    Core
   H1    Core   - H1    Core
   H2    Core   - H2    Core
   H1    Core   - N1    Core
   H2    Core   - C1    Core
   Pb    Core   - Pb    Core
   I     Core   - I     Core
   Br    Core   - Br    Core
   I     Core   - Pb    Core
   Br    Core   - Pb    Core
   C1    Core   - Pb    Core
   N1    Core   - Pb    Core
   H1    Core   - Pb    Core
   H2    Core   - Pb    Core
   C1    Core   - I     Core
   C1    Core   - Br    Core
   N1    Core   - I     Core
   N1    Core   - Br    Core
   H1    Core   - I     Core
   H1    Core   - Br    Core
   H2    Core   - I     Core
   H2    Core   - Br    Core


  Total number of molecules =     1

--------------------------------------------------------------------------------
Molecule No./:  Atoms
Periodicity  :  
--------------------------------------------------------------------------------
     1  0    : C1   c     1 N1   c     2 H1   c     3 H1   c     4 H1   c     5
             : H2   c     6 H2   c     7 H2   c     8
--------------------------------------------------------------------------------


********************************************************************************
*  Input for Configuration =   7                                               *
********************************************************************************

  Formula = CNH6PbI3                                                    

  Number of irreducible atoms/shells =      12


  Total number atoms/shells =      12

  Dimensionality = 3               :  Bulk   



  Cartesian lattice vectors (Angstroms) :

        6.250000    0.000000    0.000000
        0.000000    6.250000    0.000000
        0.000000    0.000000    6.250000

  Cell parameters (Angstroms/Degrees):

  a =       6.2500    alpha =  90.0000
  b =       6.2500    beta  =  90.0000
  c =       6.2500    gamma =  90.0000

  Initial cell volume =         244.140625 Angs**3

  Temperature of configuration =  0.000     K 

  Pressure of configuration =         0.000 GPa 

  Fractional coordinates of asymmetric unit :

--------------------------------------------------------------------------------
   No.  Atomic       x           y          z         Charge      Occupancy
        Label      (Frac)      (Frac)     (Frac)        (e)         (Frac)  
--------------------------------------------------------------------------------
      1 C1    c    0.923950    0.000090    0.985340     0.77100    1.000000    
      2 N1    c    0.152520 *  0.999980 *  0.046850 *  -1.10000    1.000000    
      3 H1    c    0.911580 *  0.000020 *  0.809860 *   0.02300    1.000000    
      4 H1    c    0.847730 *  0.144530 *  0.050900 *   0.02300    1.000000    
      5 H1    c    0.847500 *  0.855890 *  0.051060 *   0.02300    1.000000    
      6 H2    c    0.232720 *  0.134990 *  0.989300 *   0.54000    1.000000    
      7 H2    c    0.232550 *  0.864810 *  0.989390 *   0.54000    1.000000    
      8 H2    c    0.175620 *  0.000010 *  0.212430 *   0.54000    1.000000    
      9 Pb    c    0.486290 *  0.499350 *  0.490630 *   2.03000    1.000000    
     10 I     c    0.444530 *  0.499930 *  0.988090 *  -1.13000    1.000000    
     11 I     c    0.451530 *  0.999670 *  0.530230 *  -1.13000    1.000000    
     12 I     c    0.976710 *  0.500070 *  0.453060 *  -1.13000    1.000000    
--------------------------------------------------------------------------------



  Molecule list generated from bond lengths :

  Bonds between the following atom types will be excluded : 

   H1    Core   - H2    Core
   H1    Core   - H1    Core
   H2    Core   - H2    Core
   H1    Core   - N1    Core
   H2    Core   - C1    Core
   Pb    Core   - Pb    Core
   I     Core   - I     Core
   Br    Core   - Br    Core
   I     Core   - Pb    Core
   Br    Core   - Pb    Core
   C1    Core   - Pb    Core
   N1    Core   - Pb    Core
   H1    Core   - Pb    Core
   H2    Core   - Pb    Core
   C1    Core   - I     Core
   C1    Core   - Br    Core
   N1    Core   - I     Core
   N1    Core   - Br    Core
   H1    Core   - I     Core
   H1    Core   - Br    Core
   H2    Core   - I     Core
   H2    Core   - Br    Core


  Total number of molecules =     1

--------------------------------------------------------------------------------
Molecule No./:  Atoms
Periodicity  :  
--------------------------------------------------------------------------------
     1  0    : C1   c     1 N1   c     2 H1   c     3 H1   c     4 H1   c     5
             : H2   c     6 H2   c     7 H2   c     8
--------------------------------------------------------------------------------


********************************************************************************
*  Input for Configuration =   8                                               *
********************************************************************************

  Formula = CNH6PbI3                                                    

  Number of irreducible atoms/shells =      12


  Total number atoms/shells =      12

  Dimensionality = 3               :  Bulk   



  Cartesian lattice vectors (Angstroms) :

        6.400000    0.000000    0.000000
        0.000000    6.400000    0.000000
        0.000000    0.000000    6.400000

  Cell parameters (Angstroms/Degrees):

  a =       6.4000    alpha =  90.0000
  b =       6.4000    beta  =  90.0000
  c =       6.4000    gamma =  90.0000

  Initial cell volume =         262.144000 Angs**3

  Temperature of configuration =  0.000     K 

  Pressure of configuration =         0.000 GPa 

  Fractional coordinates of asymmetric unit :

--------------------------------------------------------------------------------
   No.  Atomic       x           y          z         Charge      Occupancy
        Label      (Frac)      (Frac)     (Frac)        (e)         (Frac)  
--------------------------------------------------------------------------------
      1 C1    c    0.931790    0.999910    0.988100     0.77100    1.000000    
      2 N1    c    0.156510 *  0.999660 *  0.043790 *  -1.10000    1.000000    
      3 H1    c    0.916580 *  0.999790 *  0.817030 *   0.02300    1.000000    
      4 H1    c    0.858930 *  0.140900 *  0.053960 *   0.02300    1.000000    
      5 H1    c    0.858560 *  0.859250 *  0.054210 *   0.02300    1.000000    
      6 H2    c    0.233630 *  0.131710 *  0.986460 *   0.54000    1.000000    
      7 H2    c    0.233330 *  0.867400 *  0.986490 *   0.54000    1.000000    
      8 H2    c    0.182230 *  0.999630 *  0.205420 *   0.54000    1.000000    
      9 Pb    c    0.481370 *  0.500050 *  0.493190 *   2.03000    1.000000    
     10 I     c    0.432390 *  0.499760 *  0.988420 *  -1.13000    1.000000    
     11 I     c    0.437910 *  0.000100 *  0.520460 *  -1.13000    1.000000    
     12 I     c    0.960000 *  0.501220 *  0.459600 *  -1.13000    1.000000    
--------------------------------------------------------------------------------



  Molecule list generated from bond lengths :

  Bonds between the following atom types will be excluded : 

   H1    Core   - H2    Core
   H1    Core   - H1    Core
   H2    Core   - H2    Core
   H1    Core   - N1    Core
   H2    Core   - C1    Core
   Pb    Core   - Pb    Core
   I     Core   - I     Core
   Br    Core   - Br    Core
   I     Core   - Pb    Core
   Br    Core   - Pb    Core
   C1    Core   - Pb    Core
   N1    Core   - Pb    Core
   H1    Core   - Pb    Core
   H2    Core   - Pb    Core
   C1    Core   - I     Core
   C1    Core   - Br    Core
   N1    Core   - I     Core
   N1    Core   - Br    Core
   H1    Core   - I     Core
   H1    Core   - Br    Core
   H2    Core   - I     Core
   H2    Core   - Br    Core


  Total number of molecules =     1

--------------------------------------------------------------------------------
Molecule No./:  Atoms
Periodicity  :  
--------------------------------------------------------------------------------
     1  0    : C1   c     1 N1   c     2 H1   c     3 H1   c     4 H1   c     5
             : H2   c     6 H2   c     7 H2   c     8
--------------------------------------------------------------------------------


********************************************************************************
*  Input for Configuration =   9                                               *
********************************************************************************

  Formula = CNH6PbI3                                                    

  Number of irreducible atoms/shells =      12


  Total number atoms/shells =      12

  Dimensionality = 3               :  Bulk   



  Cartesian lattice vectors (Angstroms) :

        6.200000    0.000000    0.000000
        0.000000    6.200000    0.000000
        0.000000    0.000000    6.200000

  Cell parameters (Angstroms/Degrees):

  a =       6.2000    alpha =  90.0000
  b =       6.2000    beta  =  90.0000
  c =       6.2000    gamma =  90.0000

  Initial cell volume =         238.328000 Angs**3

  Temperature of configuration =  0.000     K 

  Pressure of configuration =         0.000 GPa 

  Fractional coordinates of asymmetric unit :

--------------------------------------------------------------------------------
   No.  Atomic       x           y          z         Charge      Occupancy
        Label      (Frac)      (Frac)     (Frac)        (e)         (Frac)  
--------------------------------------------------------------------------------
      1 C1    c    0.919450    0.000010    0.980730     0.77100    1.000000    
      2 N1    c    0.147990 *  0.999920 *  0.049160 *  -1.10000    1.000000    
      3 H1    c    0.912260 *  0.999890 *  0.803620 *   0.02300    1.000000    
      4 H1    c    0.840680 *  0.145670 *  0.044380 *   0.02300    1.000000    
      5 H1    c    0.840480 *  0.854570 *  0.044610 *   0.02300    1.000000    
      6 H2    c    0.230280 *  0.136170 *  0.993340 *   0.54000    1.000000    
      7 H2    c    0.230170 *  0.863560 *  0.993430 *   0.54000    1.000000    
      8 H2    c    0.166640 *  0.999970 *  0.216530 *   0.54000    1.000000    
      9 Pb    c    0.500060 *  0.499810 *  0.494920 *   2.03000    1.000000    
     10 I     c    0.450650 *  0.499880 *  0.992080 *  -1.13000    1.000000    
     11 I     c    0.455590 *  0.999720 *  0.530830 *  -1.13000    1.000000    
     12 I     c    0.988980 *  0.500170 *  0.453520 *  -1.13000    1.000000    
--------------------------------------------------------------------------------



  Molecule list generated from bond lengths :

  Bonds between the following atom types will be excluded : 

   H1    Core   - H2    Core
   H1    Core   - H1    Core
   H2    Core   - H2    Core
   H1    Core   - N1    Core
   H2    Core   - C1    Core
   Pb    Core   - Pb    Core
   I     Core   - I     Core
   Br    Core   - Br    Core
   I     Core   - Pb    Core
   Br    Core   - Pb    Core
   C1    Core   - Pb    Core
   N1    Core   - Pb    Core
   H1    Core   - Pb    Core
   H2    Core   - Pb    Core
   C1    Core   - I     Core
   C1    Core   - Br    Core
   N1    Core   - I     Core
   N1    Core   - Br    Core
   H1    Core   - I     Core
   H1    Core   - Br    Core
   H2    Core   - I     Core
   H2    Core   - Br    Core


  Total number of molecules =     1

--------------------------------------------------------------------------------
Molecule No./:  Atoms
Periodicity  :  
--------------------------------------------------------------------------------
     1  0    : C1   c     1 N1   c     2 H1   c     3 H1   c     4 H1   c     5
             : H2   c     6 H2   c     7 H2   c     8
--------------------------------------------------------------------------------


********************************************************************************
*  Input for Configuration =  10                                               *
********************************************************************************

  Formula = CNH6PbI3                                                    

  Number of irreducible atoms/shells =      12


  Total number atoms/shells =      12

  Dimensionality = 3               :  Bulk   



  Cartesian lattice vectors (Angstroms) :

        6.310000    0.000000    0.000000
        0.000000    6.310000    0.000000
        0.000000    0.000000    6.310000

  Cell parameters (Angstroms/Degrees):

  a =       6.3100    alpha =  90.0000
  b =       6.3100    beta  =  90.0000
  c =       6.3100    gamma =  90.0000

  Initial cell volume =         251.239591 Angs**3

  Temperature of configuration =  0.000     K 

  Pressure of configuration =         0.000 GPa 

  Fractional coordinates of asymmetric unit :

--------------------------------------------------------------------------------
   No.  Atomic       x           y          z         Charge      Occupancy
        Label      (Frac)      (Frac)     (Frac)        (e)         (Frac)  
--------------------------------------------------------------------------------
      1 C1    c    0.946780    0.995600    0.944540     0.77100    1.000000    
      2 N1    c    0.133460 *  0.004140 *  0.086420 *  -1.10000    1.000000    
      3 H1    c    0.001420 *  0.982380 *  0.779580 *   0.02300    1.000000    
      4 H1    c    0.853880 *  0.141600 *  0.965120 *   0.02300    1.000000    
      5 H1    c    0.850480 *  0.856600 *  0.986780 *   0.02300    1.000000    
      6 H2    c    0.229840 *  0.134860 *  0.053720 *   0.54000    1.000000    
      7 H2    c    0.226700 *  0.867780 *  0.073980 *   0.54000    1.000000    
      8 H2    c    0.092680 *  0.016760 *  0.246540 *   0.54000    1.000000    
      9 Pb    c    0.487880 *  0.499920 *  0.491260 *   2.03000    1.000000    
     10 I     c    0.438800 *  0.499940 *  0.988060 *  -1.13000    1.000000    
     11 I     c    0.447140 *  0.999880 *  0.526420 *  -1.13000    1.000000    
     12 I     c    0.974140 *  0.499900 *  0.454700 *  -1.13000    1.000000    
--------------------------------------------------------------------------------



  Molecule list generated from bond lengths :

  Bonds between the following atom types will be excluded : 

   H1    Core   - H2    Core
   H1    Core   - H1    Core
   H2    Core   - H2    Core
   H1    Core   - N1    Core
   H2    Core   - C1    Core
   Pb    Core   - Pb    Core
   I     Core   - I     Core
   Br    Core   - Br    Core
   I     Core   - Pb    Core
   Br    Core   - Pb    Core
   C1    Core   - Pb    Core
   N1    Core   - Pb    Core
   H1    Core   - Pb    Core
   H2    Core   - Pb    Core
   C1    Core   - I     Core
   C1    Core   - Br    Core
   N1    Core   - I     Core
   N1    Core   - Br    Core
   H1    Core   - I     Core
   H1    Core   - Br    Core
   H2    Core   - I     Core
   H2    Core   - Br    Core


  Total number of molecules =     1

--------------------------------------------------------------------------------
Molecule No./:  Atoms
Periodicity  :  
--------------------------------------------------------------------------------
     1  0    : C1   c     1 N1   c     2 H1   c     3 H1   c     4 H1   c     5
             : H2   c     6 H2   c     7 H2   c     8
--------------------------------------------------------------------------------


********************************************************************************
*  Input for Configuration =  11                                               *
********************************************************************************

  Formula = CNH6PbI3                                                    

  Number of irreducible atoms/shells =      12


  Total number atoms/shells =      12

  Dimensionality = 3               :  Bulk   



  Cartesian lattice vectors (Angstroms) :

        6.310000    0.000000    0.000000
        0.000000    6.310000    0.000000
        0.000000    0.000000    6.310000

  Cell parameters (Angstroms/Degrees):

  a =       6.3100    alpha =  90.0000
  b =       6.3100    beta  =  90.0000
  c =       6.3100    gamma =  90.0000

  Initial cell volume =         251.239591 Angs**3

  Temperature of configuration =  0.000     K 

  Pressure of configuration =         0.000 GPa 

  Fractional coordinates of asymmetric unit :

--------------------------------------------------------------------------------
   No.  Atomic       x           y          z         Charge      Occupancy
        Label      (Frac)      (Frac)     (Frac)        (e)         (Frac)  
--------------------------------------------------------------------------------
      1 C1    c    0.923260    0.999600    0.032940     0.77100    1.000000    
      2 N1    c    0.155760 *  0.000320 *  0.001480 *  -1.10000    1.000000    
      3 H1    c    0.844920 *  0.999480 *  0.877260 *   0.02300    1.000000    
      4 H1    c    0.878220 *  0.142300 *  0.122260 *   0.02300    1.000000    
      5 H1    c    0.879100 *  0.856460 *  0.122040 *   0.02300    1.000000    
      6 H2    c    0.206380 *  0.134480 *  0.918520 *   0.54000    1.000000    
      7 H2    c    0.207160 *  0.866640 *  0.918240 *   0.54000    1.000000    
      8 H2    c    0.240440 *  0.000420 *  0.143920 *   0.54000    1.000000    
      9 Pb    c    0.487880 *  0.499920 *  0.491260 *   2.03000    1.000000    
     10 I     c    0.438800 *  0.499940 *  0.988060 *  -1.13000    1.000000    
     11 I     c    0.447140 *  0.999880 *  0.526420 *  -1.13000    1.000000    
     12 I     c    0.974140 *  0.499900 *  0.454700 *  -1.13000    1.000000    
--------------------------------------------------------------------------------



  Molecule list generated from bond lengths :

  Bonds between the following atom types will be excluded : 

   H1    Core   - H2    Core
   H1    Core   - H1    Core
   H2    Core   - H2    Core
   H1    Core   - N1    Core
   H2    Core   - C1    Core
   Pb    Core   - Pb    Core
   I     Core   - I     Core
   Br    Core   - Br    Core
   I     Core   - Pb    Core
   Br    Core   - Pb    Core
   C1    Core   - Pb    Core
   N1    Core   - Pb    Core
   H1    Core   - Pb    Core
   H2    Core   - Pb    Core
   C1    Core   - I     Core
   C1    Core   - Br    Core
   N1    Core   - I     Core
   N1    Core   - Br    Core
   H1    Core   - I     Core
   H1    Core   - Br    Core
   H2    Core   - I     Core
   H2    Core   - Br    Core


  Total number of molecules =     1

--------------------------------------------------------------------------------
Molecule No./:  Atoms
Periodicity  :  
--------------------------------------------------------------------------------
     1  0    : C1   c     1 N1   c     2 H1   c     3 H1   c     4 H1   c     5
             : H2   c     6 H2   c     7 H2   c     8
--------------------------------------------------------------------------------


********************************************************************************
*  Input for Configuration =  12                                               *
********************************************************************************

  Formula = CNH6PbI3                                                    

  Number of irreducible atoms/shells =      12


  Total number atoms/shells =      12

  Dimensionality = 3               :  Bulk   



  Cartesian lattice vectors (Angstroms) :

        6.500000    0.000000    0.000000
        0.000000    6.500000    0.000000
        0.000000    0.000000    6.500000

  Cell parameters (Angstroms/Degrees):

  a =       6.5000    alpha =  90.0000
  b =       6.5000    beta  =  90.0000
  c =       6.5000    gamma =  90.0000

  Initial cell volume =         274.625000 Angs**3

  Temperature of configuration =  0.000     K 

  Pressure of configuration =         0.000 GPa 

  Fractional coordinates of asymmetric unit :

--------------------------------------------------------------------------------
   No.  Atomic       x           y          z         Charge      Occupancy
        Label      (Frac)      (Frac)     (Frac)        (e)         (Frac)  
--------------------------------------------------------------------------------
      1 C1    c    0.937990    0.999990    0.990480     0.77100    1.000000    
      2 N1    c    0.160140 *  0.999890 *  0.042150 *  -1.10000    1.000000    
      3 H1    c    0.921280 *  0.999850 *  0.822050 *   0.02300    1.000000    
      4 H1    c    0.866920 *  0.138840 *  0.056170 *   0.02300    1.000000    
      5 H1    c    0.866770 *  0.861380 *  0.056390 *   0.02300    1.000000    
      6 H2    c    0.235090 *  0.129810 *  0.984570 *   0.54000    1.000000    
      7 H2    c    0.234930 *  0.869830 *  0.984720 *   0.54000    1.000000    
      8 H2    c    0.187850 *  0.999980 *  0.200880 *   0.54000    1.000000    
      9 Pb    c    0.476640 *  0.500030 *  0.495010 *   2.03000    1.000000    
     10 I     c    0.424700 *  0.499800 *  0.986180 *  -1.13000    1.000000    
     11 I     c    0.426670 *  0.999920 *  0.518100 *  -1.13000    1.000000    
     12 I     c    0.944230 *  0.500030 *  0.460430 *  -1.13000    1.000000    
--------------------------------------------------------------------------------



  Molecule list generated from bond lengths :

  Bonds between the following atom types will be excluded : 

   H1    Core   - H2    Core
   H1    Core   - H1    Core
   H2    Core   - H2    Core
   H1    Core   - N1    Core
   H2    Core   - C1    Core
   Pb    Core   - Pb    Core
   I     Core   - I     Core
   Br    Core   - Br    Core
   I     Core   - Pb    Core
   Br    Core   - Pb    Core
   C1    Core   - Pb    Core
   N1    Core   - Pb    Core
   H1    Core   - Pb    Core
   H2    Core   - Pb    Core
   C1    Core   - I     Core
   C1    Core   - Br    Core
   N1    Core   - I     Core
   N1    Core   - Br    Core
   H1    Core   - I     Core
   H1    Core   - Br    Core
   H2    Core   - I     Core
   H2    Core   - Br    Core


  Total number of molecules =     1

--------------------------------------------------------------------------------
Molecule No./:  Atoms
Periodicity  :  
--------------------------------------------------------------------------------
     1  0    : C1   c     1 N1   c     2 H1   c     3 H1   c     4 H1   c     5
             : H2   c     6 H2   c     7 H2   c     8
--------------------------------------------------------------------------------


********************************************************************************
*  Input for Configuration =  13                                               *
********************************************************************************

  Formula = CNH6PbI3                                                    

  Number of irreducible atoms/shells =      12


  Total number atoms/shells =      12

  Dimensionality = 3               :  Bulk   



  Cartesian lattice vectors (Angstroms) :

        6.100000    0.000000    0.000000
        0.000000    6.100000    0.000000
        0.000000    0.000000    6.100000

  Cell parameters (Angstroms/Degrees):

  a =       6.1000    alpha =  90.0000
  b =       6.1000    beta  =  90.0000
  c =       6.1000    gamma =  90.0000

  Initial cell volume =         226.981000 Angs**3

  Temperature of configuration =  0.000     K 

  Pressure of configuration =         0.000 GPa 

  Fractional coordinates of asymmetric unit :

--------------------------------------------------------------------------------
   No.  Atomic       x           y          z         Charge      Occupancy
        Label      (Frac)      (Frac)     (Frac)        (e)         (Frac)  
--------------------------------------------------------------------------------
      1 C1    c    0.916830    0.999960    0.973050     0.77100    1.000000    
      2 N1    c    0.143660 *  0.999930 *  0.058240 *  -1.10000    1.000000    
      3 H1    c    0.922360 *  0.999880 *  0.792820 *   0.02300    1.000000    
      4 H1    c    0.832110 *  0.148060 *  0.031730 *   0.02300    1.000000    
      5 H1    c    0.831970 *  0.852010 *  0.031860 *   0.02300    1.000000    
      6 H2    c    0.230890 *  0.138310 *  0.006500 *   0.54000    1.000000    
      7 H2    c    0.230860 *  0.861490 *  0.006660 *   0.54000    1.000000    
      8 H2    c    0.151660 *  0.000040 *  0.228920 *   0.54000    1.000000    
      9 Pb    c    0.508970 *  0.499840 *  0.492460 *   2.03000    1.000000    
     10 I     c    0.454800 *  0.499930 *  0.990470 *  -1.13000    1.000000    
     11 I     c    0.460520 *  0.999840 *  0.539720 *  -1.13000    1.000000    
     12 I     c    0.998600 *  0.500050 *  0.444710 *  -1.13000    1.000000    
--------------------------------------------------------------------------------



  Molecule list generated from bond lengths :

  Bonds between the following atom types will be excluded : 

   H1    Core   - H2    Core
   H1    Core   - H1    Core
   H2    Core   - H2    Core
   H1    Core   - N1    Core
   H2    Core   - C1    Core
   Pb    Core   - Pb    Core
   I     Core   - I     Core
   Br    Core   - Br    Core
   I     Core   - Pb    Core
   Br    Core   - Pb    Core
   C1    Core   - Pb    Core
   N1    Core   - Pb    Core
   H1    Core   - Pb    Core
   H2    Core   - Pb    Core
   C1    Core   - I     Core
   C1    Core   - Br    Core
   N1    Core   - I     Core
   N1    Core   - Br    Core
   H1    Core   - I     Core
   H1    Core   - Br    Core
   H2    Core   - I     Core
   H2    Core   - Br    Core


  Total number of molecules =     1

--------------------------------------------------------------------------------
Molecule No./:  Atoms
Periodicity  :  
--------------------------------------------------------------------------------
     1  0    : C1   c     1 N1   c     2 H1   c     3 H1   c     4 H1   c     5
             : H2   c     6 H2   c     7 H2   c     8
--------------------------------------------------------------------------------


********************************************************************************
*  Input for Configuration =  14                                               *
********************************************************************************

  Formula = CNH6PbI3                                                    

  Number of irreducible atoms/shells =      12


  Total number atoms/shells =      12

  Dimensionality = 3               :  Bulk   



  Cartesian lattice vectors (Angstroms) :

        6.310000    0.000000    0.000000
        0.000000    6.310000    0.000000
        0.000000    0.000000    6.310000

  Cell parameters (Angstroms/Degrees):

  a =       6.3100    alpha =  90.0000
  b =       6.3100    beta  =  90.0000
  c =       6.3100    gamma =  90.0000

  Initial cell volume =         251.239591 Angs**3

  Temperature of configuration =  0.000     K 

  Pressure of configuration =         0.000 GPa 

  Fractional coordinates of asymmetric unit :

--------------------------------------------------------------------------------
   No.  Atomic       x           y          z         Charge      Occupancy
        Label      (Frac)      (Frac)     (Frac)        (e)         (Frac)  
--------------------------------------------------------------------------------
      1 C1    c    0.981820    0.994760    0.913680     0.77100    1.000000    
      2 N1    c    0.099920 *  0.004960 *  0.116160 *  -1.10000    1.000000    
      3 H1    c    0.095560 *  0.982600 *  0.782200 *   0.02300    1.000000    
      4 H1    c    0.886500 *  0.139680 *  0.896900 *   0.02300    1.000000    
      5 H1    c    0.878240 *  0.854600 *  0.916100 *   0.02300    1.000000    
      6 H2    c    0.200020 *  0.136800 *  0.122620 *   0.54000    1.000000    
      7 H2    c    0.192340 *  0.869660 *  0.140560 *   0.54000    1.000000    
      8 H2    c    0.000840 *  0.016680 *  0.248480 *   0.54000    1.000000    
      9 Pb    c    0.487880 *  0.499920 *  0.491260 *   2.03000    1.000000    
     10 I     c    0.438800 *  0.499940 *  0.988060 *  -1.13000    1.000000    
     11 I     c    0.447140 *  0.999880 *  0.526420 *  -1.13000    1.000000    
     12 I     c    0.974140 *  0.499900 *  0.454700 *  -1.13000    1.000000    
--------------------------------------------------------------------------------



  Molecule list generated from bond lengths :

  Bonds between the following atom types will be excluded : 

   H1    Core   - H2    Core
   H1    Core   - H1    Core
   H2    Core   - H2    Core
   H1    Core   - N1    Core
   H2    Core   - C1    Core
   Pb    Core   - Pb    Core
   I     Core   - I     Core
   Br    Core   - Br    Core
   I     Core   - Pb    Core
   Br    Core   - Pb    Core
   C1    Core   - Pb    Core
   N1    Core   - Pb    Core
   H1    Core   - Pb    Core
   H2    Core   - Pb    Core
   C1    Core   - I     Core
   C1    Core   - Br    Core
   N1    Core   - I     Core
   N1    Core   - Br    Core
   H1    Core   - I     Core
   H1    Core   - Br    Core
   H2    Core   - I     Core
   H2    Core   - Br    Core


  Total number of molecules =     1

--------------------------------------------------------------------------------
Molecule No./:  Atoms
Periodicity  :  
--------------------------------------------------------------------------------
     1  0    : C1   c     1 N1   c     2 H1   c     3 H1   c     4 H1   c     5
             : H2   c     6 H2   c     7 H2   c     8
--------------------------------------------------------------------------------


********************************************************************************
*  Input for Configuration =  15                                               *
********************************************************************************

  Formula = CNH6PbI3                                                    

  Number of irreducible atoms/shells =      12


  Total number atoms/shells =      12

  Dimensionality = 3               :  Bulk   



  Cartesian lattice vectors (Angstroms) :

        6.600000    0.000000    0.000000
        0.000000    6.600000    0.000000
        0.000000    0.000000    6.600000

  Cell parameters (Angstroms/Degrees):

  a =       6.6000    alpha =  90.0000
  b =       6.6000    beta  =  90.0000
  c =       6.6000    gamma =  90.0000

  Initial cell volume =         287.496000 Angs**3

  Temperature of configuration =  0.000     K 

  Pressure of configuration =         0.000 GPa 

  Fractional coordinates of asymmetric unit :

--------------------------------------------------------------------------------
   No.  Atomic       x           y          z         Charge      Occupancy
        Label      (Frac)      (Frac)     (Frac)        (e)         (Frac)  
--------------------------------------------------------------------------------
      1 C1    c    0.948620    0.999610    0.996860     0.77100    1.000000    
      2 N1    c    0.169080 *  0.999730 *  0.040070 *  -1.10000    1.000000    
      3 H1    c    0.926310 *  0.999360 *  0.831780 *   0.02300    1.000000    
      4 H1    c    0.881150 *  0.136270 *  0.063920 *   0.02300    1.000000    
      5 H1    c    0.881270 *  0.863000 *  0.064290 *   0.02300    1.000000    
      6 H2    c    0.240040 *  0.127960 *  0.980230 *   0.54000    1.000000    
      7 H2    c    0.240110 *  0.871290 *  0.980730 *   0.54000    1.000000    
      8 H2    c    0.201610 *  0.000050 *  0.195910 *   0.54000    1.000000    
      9 Pb    c    0.412250 *  0.499660 *  0.499880 *   2.03000    1.000000    
     10 I     c    0.408400 *  0.500060 *  0.972290 *  -1.13000    1.000000    
     11 I     c    0.415870 *  0.001140 *  0.517130 *  -1.13000    1.000000    
     12 I     c    0.958520 *  0.501220 *  0.454060 *  -1.13000    1.000000    
--------------------------------------------------------------------------------



  Molecule list generated from bond lengths :

  Bonds between the following atom types will be excluded : 

   H1    Core   - H2    Core
   H1    Core   - H1    Core
   H2    Core   - H2    Core
   H1    Core   - N1    Core
   H2    Core   - C1    Core
   Pb    Core   - Pb    Core
   I     Core   - I     Core
   Br    Core   - Br    Core
   I     Core   - Pb    Core
   Br    Core   - Pb    Core
   C1    Core   - Pb    Core
   N1    Core   - Pb    Core
   H1    Core   - Pb    Core
   H2    Core   - Pb    Core
   C1    Core   - I     Core
   C1    Core   - Br    Core
   N1    Core   - I     Core
   N1    Core   - Br    Core
   H1    Core   - I     Core
   H1    Core   - Br    Core
   H2    Core   - I     Core
   H2    Core   - Br    Core


  Total number of molecules =     1

--------------------------------------------------------------------------------
Molecule No./:  Atoms
Periodicity  :  
--------------------------------------------------------------------------------
     1  0    : C1   c     1 N1   c     2 H1   c     3 H1   c     4 H1   c     5
             : H2   c     6 H2   c     7 H2   c     8
--------------------------------------------------------------------------------


********************************************************************************
*  Input for Configuration =  16                                               *
********************************************************************************

  Formula = CNH6PbI3                                                    

  Number of irreducible atoms/shells =      12


  Total number atoms/shells =      12

  Dimensionality = 3               :  Bulk   



  Cartesian lattice vectors (Angstroms) :

        6.310000    0.000000    0.000000
        0.000000    6.310000    0.000000
        0.000000    0.000000    6.310000

  Cell parameters (Angstroms/Degrees):

  a =       6.3100    alpha =  90.0000
  b =       6.3100    beta  =  90.0000
  c =       6.3100    gamma =  90.0000

  Initial cell volume =         251.239591 Angs**3

  Temperature of configuration =  0.000     K 

  Pressure of configuration =         0.000 GPa 

  Fractional coordinates of asymmetric unit :

--------------------------------------------------------------------------------
   No.  Atomic       x           y          z         Charge      Occupancy
        Label      (Frac)      (Frac)     (Frac)        (e)         (Frac)  
--------------------------------------------------------------------------------
      1 C1    c    0.938340    0.999140    0.077120     0.77100    1.000000    
      2 N1    c    0.141120 *  0.000760 *  0.959100 *  -1.10000    1.000000    
      3 H1    c    0.806400 *  0.998740 *  0.963280 *   0.02300    1.000000    
      4 H1    c    0.930440 *  0.141660 *  0.177140 *   0.02300    1.000000    
      5 H1    c    0.932140 *  0.855820 *  0.176120 *   0.02300    1.000000    
      6 H2    c    0.155680 *  0.135140 *  0.863320 *   0.54000    1.000000    
      7 H2    c    0.157220 *  0.867280 *  0.862320 *   0.54000    1.000000    
      8 H2    c    0.273860 *  0.001140 *  0.058300 *   0.54000    1.000000    
      9 Pb    c    0.487880 *  0.499920 *  0.491260 *   2.03000    1.000000    
     10 I     c    0.438800 *  0.499940 *  0.988060 *  -1.13000    1.000000    
     11 I     c    0.447140 *  0.999880 *  0.526420 *  -1.13000    1.000000    
     12 I     c    0.974140 *  0.499900 *  0.454700 *  -1.13000    1.000000    
--------------------------------------------------------------------------------



  Molecule list generated from bond lengths :

  Bonds between the following atom types will be excluded : 

   H1    Core   - H2    Core
   H1    Core   - H1    Core
   H2    Core   - H2    Core
   H1    Core   - N1    Core
   H2    Core   - C1    Core
   Pb    Core   - Pb    Core
   I     Core   - I     Core
   Br    Core   - Br    Core
   I     Core   - Pb    Core
   Br    Core   - Pb    Core
   C1    Core   - Pb    Core
   N1    Core   - Pb    Core
   H1    Core   - Pb    Core
   H2    Core   - Pb    Core
   C1    Core   - I     Core
   C1    Core   - Br    Core
   N1    Core   - I     Core
   N1    Core   - Br    Core
   H1    Core   - I     Core
   H1    Core   - Br    Core
   H2    Core   - I     Core
   H2    Core   - Br    Core


  Total number of molecules =     1

--------------------------------------------------------------------------------
Molecule No./:  Atoms
Periodicity  :  
--------------------------------------------------------------------------------
     1  0    : C1   c     1 N1   c     2 H1   c     3 H1   c     4 H1   c     5
             : H2   c     6 H2   c     7 H2   c     8
--------------------------------------------------------------------------------


********************************************************************************
*  Input for Configuration =  17                                               *
********************************************************************************

  Formula = CNH6PbI3                                                    

  Number of irreducible atoms/shells =      12


  Total number atoms/shells =      12

  Dimensionality = 3               :  Bulk   



  Cartesian lattice vectors (Angstroms) :

        6.700000    0.000000    0.000000
        0.000000    6.700000    0.000000
        0.000000    0.000000    6.700000

  Cell parameters (Angstroms/Degrees):

  a =       6.7000    alpha =  90.0000
  b =       6.7000    beta  =  90.0000
  c =       6.7000    gamma =  90.0000

  Initial cell volume =         300.763000 Angs**3

  Temperature of configuration =  0.000     K 

  Pressure of configuration =         0.000 GPa 

  Fractional coordinates of asymmetric unit :

--------------------------------------------------------------------------------
   No.  Atomic       x           y          z         Charge      Occupancy
        Label      (Frac)      (Frac)     (Frac)        (e)         (Frac)  
--------------------------------------------------------------------------------
      1 C1    c    0.958770    0.999630    0.003490     0.77100    1.000000    
      2 N1    c    0.177580 *  0.999670 *  0.036130 *  -1.10000    1.000000    
      3 H1    c    0.929440 *  0.999560 *  0.842140 *   0.02300    1.000000    
      4 H1    c    0.895380 *  0.134250 *  0.072830 *   0.02300    1.000000    
      5 H1    c    0.895430 *  0.865110 *  0.072940 *   0.02300    1.000000    
      6 H2    c    0.244630 *  0.125790 *  0.973600 *   0.54000    1.000000    
      7 H2    c    0.244440 *  0.872390 *  0.975630 *   0.54000    1.000000    
      8 H2    c    0.214530 *  0.001230 *  0.188690 *   0.54000    1.000000    
      9 Pb    c    0.387690 *  0.482260 *  0.502620 *   2.03000    1.000000    
     10 I     c    0.392150 *  0.500730 *  0.961870 *  -1.13000    1.000000    
     11 I     c    0.395560 *  0.017170 *  0.516780 *  -1.13000    1.000000    
     12 I     c    0.947630 *  0.501560 *  0.450430 *  -1.13000    1.000000    
--------------------------------------------------------------------------------



  Molecule list generated from bond lengths :

  Bonds between the following atom types will be excluded : 

   H1    Core   - H2    Core
   H1    Core   - H1    Core
   H2    Core   - H2    Core
   H1    Core   - N1    Core
   H2    Core   - C1    Core
   Pb    Core   - Pb    Core
   I     Core   - I     Core
   Br    Core   - Br    Core
   I     Core   - Pb    Core
   Br    Core   - Pb    Core
   C1    Core   - Pb    Core
   N1    Core   - Pb    Core
   H1    Core   - Pb    Core
   H2    Core   - Pb    Core
   C1    Core   - I     Core
   C1    Core   - Br    Core
   N1    Core   - I     Core
   N1    Core   - Br    Core
   H1    Core   - I     Core
   H1    Core   - Br    Core
   H2    Core   - I     Core
   H2    Core   - Br    Core


  Total number of molecules =     1

--------------------------------------------------------------------------------
Molecule No./:  Atoms
Periodicity  :  
--------------------------------------------------------------------------------
     1  0    : C1   c     1 N1   c     2 H1   c     3 H1   c     4 H1   c     5
             : H2   c     6 H2   c     7 H2   c     8
--------------------------------------------------------------------------------


********************************************************************************
*  Input for Configuration =  18                                               *
********************************************************************************

  Formula = CNH6PbI3                                                    

  Number of irreducible atoms/shells =      12


  Total number atoms/shells =      12

  Dimensionality = 3               :  Bulk   



  Cartesian lattice vectors (Angstroms) :

        6.310000    0.000000    0.000000
        0.000000    6.310000    0.000000
        0.000000    0.000000    6.310000

  Cell parameters (Angstroms/Degrees):

  a =       6.3100    alpha =  90.0000
  b =       6.3100    beta  =  90.0000
  c =       6.3100    gamma =  90.0000

  Initial cell volume =         251.239591 Angs**3

  Temperature of configuration =  0.000     K 

  Pressure of configuration =         0.000 GPa 

  Fractional coordinates of asymmetric unit :

--------------------------------------------------------------------------------
   No.  Atomic       x           y          z         Charge      Occupancy
        Label      (Frac)      (Frac)     (Frac)        (e)         (Frac)  
--------------------------------------------------------------------------------
      1 C1    c    0.114560    0.995200    0.922060     0.77100    1.000000    
      2 N1    c    0.972480 *  0.004540 *  0.108540 *  -1.10000    1.000000    
      3 H1    c    0.279840 *  0.988500 *  0.976900 *   0.02300    1.000000    
      4 H1    c    0.089540 *  0.137900 *  0.825200 *   0.02300    1.000000    
      5 H1    c    0.076540 *  0.852380 *  0.829640 *   0.02300    1.000000    
      6 H2    c    0.001180 *  0.138780 *  0.201280 *   0.54000    1.000000    
      7 H2    c    0.989060 *  0.871240 *  0.205480 *   0.54000    1.000000    
      8 H2    c    0.812060 *  0.011160 *  0.067560 *   0.54000    1.000000    
      9 Pb    c    0.487880 *  0.499920 *  0.491260 *   2.03000    1.000000    
     10 I     c    0.438800 *  0.499940 *  0.988060 *  -1.13000    1.000000    
     11 I     c    0.447140 *  0.999880 *  0.526420 *  -1.13000    1.000000    
     12 I     c    0.974140 *  0.499900 *  0.454700 *  -1.13000    1.000000    
--------------------------------------------------------------------------------



  Molecule list generated from bond lengths :

  Bonds between the following atom types will be excluded : 

   H1    Core   - H2    Core
   H1    Core   - H1    Core
   H2    Core   - H2    Core
   H1    Core   - N1    Core
   H2    Core   - C1    Core
   Pb    Core   - Pb    Core
   I     Core   - I     Core
   Br    Core   - Br    Core
   I     Core   - Pb    Core
   Br    Core   - Pb    Core
   C1    Core   - Pb    Core
   N1    Core   - Pb    Core
   H1    Core   - Pb    Core
   H2    Core   - Pb    Core
   C1    Core   - I     Core
   C1    Core   - Br    Core
   N1    Core   - I     Core
   N1    Core   - Br    Core
   H1    Core   - I     Core
   H1    Core   - Br    Core
   H2    Core   - I     Core
   H2    Core   - Br    Core


  Total number of molecules =     1

--------------------------------------------------------------------------------
Molecule No./:  Atoms
Periodicity  :  
--------------------------------------------------------------------------------
     1  0    : C1   c     1 N1   c     2 H1   c     3 H1   c     4 H1   c     5
             : H2   c     6 H2   c     7 H2   c     8
--------------------------------------------------------------------------------


********************************************************************************
*  Input for Configuration =  19                                               *
********************************************************************************

  Formula = CNH6PbI3                                                    

  Number of irreducible atoms/shells =      12


  Total number atoms/shells =      12

  Dimensionality = 3               :  Bulk   



  Cartesian lattice vectors (Angstroms) :

        6.310000    0.000000    0.000000
        0.000000    6.310000    0.000000
        0.000000    0.000000    6.310000

  Cell parameters (Angstroms/Degrees):

  a =       6.3100    alpha =  90.0000
  b =       6.3100    beta  =  90.0000
  c =       6.3100    gamma =  90.0000

  Initial cell volume =         251.239591 Angs**3

  Temperature of configuration =  0.000     K 

  Pressure of configuration =         0.000 GPa 

  Fractional coordinates of asymmetric unit :

--------------------------------------------------------------------------------
   No.  Atomic       x           y          z         Charge      Occupancy
        Label      (Frac)      (Frac)     (Frac)        (e)         (Frac)  
--------------------------------------------------------------------------------
      1 C1    c    0.072620    0.994540    0.901520     0.77100    1.000000    
      2 N1    c    0.012800 *  0.005160 *  0.128140 *  -1.10000    1.000000    
      3 H1    c    0.246220 *  0.985900 *  0.888980 *   0.02300    1.000000    
      4 H1    c    0.014040 *  0.137660 *  0.821200 *   0.02300    1.000000    
      5 H1    c    0.000580 *  0.852320 *  0.831060 *   0.02300    1.000000    
      6 H2    c    0.076260 *  0.138920 *  0.202480 *   0.54000    1.000000    
      7 H2    c    0.063740 *  0.871520 *  0.211720 *   0.54000    1.000000    
      8 H2    c    0.848980 *  0.013660 *  0.151620 *   0.54000    1.000000    
      9 Pb    c    0.487880 *  0.499920 *  0.491260 *   2.03000    1.000000    
     10 I     c    0.438800 *  0.499940 *  0.988060 *  -1.13000    1.000000    
     11 I     c    0.447140 *  0.999880 *  0.526420 *  -1.13000    1.000000    
     12 I     c    0.974140 *  0.499900 *  0.454700 *  -1.13000    1.000000    
--------------------------------------------------------------------------------



  Molecule list generated from bond lengths :

  Bonds between the following atom types will be excluded : 

   H1    Core   - H2    Core
   H1    Core   - H1    Core
   H2    Core   - H2    Core
   H1    Core   - N1    Core
   H2    Core   - C1    Core
   Pb    Core   - Pb    Core
   I     Core   - I     Core
   Br    Core   - Br    Core
   I     Core   - Pb    Core
   Br    Core   - Pb    Core
   C1    Core   - Pb    Core
   N1    Core   - Pb    Core
   H1    Core   - Pb    Core
   H2    Core   - Pb    Core
   C1    Core   - I     Core
   C1    Core   - Br    Core
   N1    Core   - I     Core
   N1    Core   - Br    Core
   H1    Core   - I     Core
   H1    Core   - Br    Core
   H2    Core   - I     Core
   H2    Core   - Br    Core


  Total number of molecules =     1

--------------------------------------------------------------------------------
Molecule No./:  Atoms
Periodicity  :  
--------------------------------------------------------------------------------
     1  0    : C1   c     1 N1   c     2 H1   c     3 H1   c     4 H1   c     5
             : H2   c     6 H2   c     7 H2   c     8
--------------------------------------------------------------------------------


********************************************************************************
*  Input for Configuration =  20                                               *
********************************************************************************

  Formula = CNH6PbI3                                                    

  Number of irreducible atoms/shells =      12


  Total number atoms/shells =      12

  Dimensionality = 3               :  Bulk   



  Cartesian lattice vectors (Angstroms) :

        6.310000    0.000000    0.000000
        0.000000    6.310000    0.000000
        0.000000    0.000000    6.310000

  Cell parameters (Angstroms/Degrees):

  a =       6.3100    alpha =  90.0000
  b =       6.3100    beta  =  90.0000
  c =       6.3100    gamma =  90.0000

  Initial cell volume =         251.239591 Angs**3

  Temperature of configuration =  0.000     K 

  Pressure of configuration =         0.000 GPa 

  Fractional coordinates of asymmetric unit :

--------------------------------------------------------------------------------
   No.  Atomic       x           y          z         Charge      Occupancy
        Label      (Frac)      (Frac)     (Frac)        (e)         (Frac)  
--------------------------------------------------------------------------------
      1 C1    c    0.026020    0.994380    0.898560     0.77100    1.000000    
      2 N1    c    0.057540 *  0.005320 *  0.130800 *  -1.10000    1.000000    
      3 H1    c    0.181520 *  0.983840 *  0.820600 *   0.02300    1.000000    
      4 H1    c    0.942720 *  0.138300 *  0.846380 *   0.02300    1.000000    
      5 H1    c    0.930960 *  0.853100 *  0.861420 *   0.02300    1.000000    
      6 H2    c    0.146080 *  0.138240 *  0.174840 *   0.54000    1.000000    
      7 H2    c    0.135120 *  0.870960 *  0.188920 *   0.54000    1.000000    
      8 H2    c    0.915280 *  0.015580 *  0.215140 *   0.54000    1.000000    
      9 Pb    c    0.487880 *  0.499920 *  0.491260 *   2.03000    1.000000    
     10 I     c    0.438800 *  0.499940 *  0.988060 *  -1.13000    1.000000    
     11 I     c    0.447140 *  0.999880 *  0.526420 *  -1.13000    1.000000    
     12 I     c    0.974140 *  0.499900 *  0.454700 *  -1.13000    1.000000    
--------------------------------------------------------------------------------



  Molecule list generated from bond lengths :

  Bonds between the following atom types will be excluded : 

   H1    Core   - H2    Core
   H1    Core   - H1    Core
   H2    Core   - H2    Core
   H1    Core   - N1    Core
   H2    Core   - C1    Core
   Pb    Core   - Pb    Core
   I     Core   - I     Core
   Br    Core   - Br    Core
   I     Core   - Pb    Core
   Br    Core   - Pb    Core
   C1    Core   - Pb    Core
   N1    Core   - Pb    Core
   H1    Core   - Pb    Core
   H2    Core   - Pb    Core
   C1    Core   - I     Core
   C1    Core   - Br    Core
   N1    Core   - I     Core
   N1    Core   - Br    Core
   H1    Core   - I     Core
   H1    Core   - Br    Core
   H2    Core   - I     Core
   H2    Core   - Br    Core


  Total number of molecules =     1

--------------------------------------------------------------------------------
Molecule No./:  Atoms
Periodicity  :  
--------------------------------------------------------------------------------
     1  0    : C1   c     1 N1   c     2 H1   c     3 H1   c     4 H1   c     5
             : H2   c     6 H2   c     7 H2   c     8
--------------------------------------------------------------------------------


********************************************************************************
*  Input for Configuration =  21                                               *
********************************************************************************

  Formula = CNH6PbI3                                                    

  Number of irreducible atoms/shells =      12


  Total number atoms/shells =      12

  Dimensionality = 3               :  Bulk   



  Cartesian lattice vectors (Angstroms) :

        6.310000    0.000000    0.000000
        0.000000    6.310000    0.000000
        0.000000    0.000000    6.310000

  Cell parameters (Angstroms/Degrees):

  a =       6.3100    alpha =  90.0000
  b =       6.3100    beta  =  90.0000
  c =       6.3100    gamma =  90.0000

  Initial cell volume =         251.239591 Angs**3

  Temperature of configuration =  0.000     K 

  Pressure of configuration =         0.000 GPa 

  Fractional coordinates of asymmetric unit :

--------------------------------------------------------------------------------
   No.  Atomic       x           y          z         Charge      Occupancy
        Label      (Frac)      (Frac)     (Frac)        (e)         (Frac)  
--------------------------------------------------------------------------------
      1 C1    c    0.969220    0.998740    0.112180     0.77100    1.000000    
      2 N1    c    0.111380 *  0.001140 *  0.925560 *  -1.10000    1.000000    
      3 H1    c    0.803740 *  0.997860 *  0.057480 *   0.02300    1.000000    
      4 H1    c    0.999680 *  0.141200 *  0.207840 *   0.02300    1.000000    
      5 H1    c    0.001860 *  0.855380 *  0.205780 *   0.02300    1.000000    
      6 H2    c    0.087700 *  0.135600 *  0.831700 *   0.54000    1.000000    
      7 H2    c    0.089680 *  0.867760 *  0.829740 *   0.54000    1.000000    
      8 H2    c    0.271980 *  0.002020 *  0.966400 *   0.54000    1.000000    
      9 Pb    c    0.487880 *  0.499920 *  0.491260 *   2.03000    1.000000    
     10 I     c    0.438800 *  0.499940 *  0.988060 *  -1.13000    1.000000    
     11 I     c    0.447140 *  0.999880 *  0.526420 *  -1.13000    1.000000    
     12 I     c    0.974140 *  0.499900 *  0.454700 *  -1.13000    1.000000    
--------------------------------------------------------------------------------



  Molecule list generated from bond lengths :

  Bonds between the following atom types will be excluded : 

   H1    Core   - H2    Core
   H1    Core   - H1    Core
   H2    Core   - H2    Core
   H1    Core   - N1    Core
   H2    Core   - C1    Core
   Pb    Core   - Pb    Core
   I     Core   - I     Core
   Br    Core   - Br    Core
   I     Core   - Pb    Core
   Br    Core   - Pb    Core
   C1    Core   - Pb    Core
   N1    Core   - Pb    Core
   H1    Core   - Pb    Core
   H2    Core   - Pb    Core
   C1    Core   - I     Core
   C1    Core   - Br    Core
   N1    Core   - I     Core
   N1    Core   - Br    Core
   H1    Core   - I     Core
   H1    Core   - Br    Core
   H2    Core   - I     Core
   H2    Core   - Br    Core


  Total number of molecules =     1

--------------------------------------------------------------------------------
Molecule No./:  Atoms
Periodicity  :  
--------------------------------------------------------------------------------
     1  0    : C1   c     1 N1   c     2 H1   c     3 H1   c     4 H1   c     5
             : H2   c     6 H2   c     7 H2   c     8
--------------------------------------------------------------------------------


********************************************************************************
*  Input for Configuration =  22                                               *
********************************************************************************

  Formula = CNH6PbI3                                                    

  Number of irreducible atoms/shells =      12


  Total number atoms/shells =      12

  Dimensionality = 3               :  Bulk   



  Cartesian lattice vectors (Angstroms) :

        6.310000    0.000000    0.000000
        0.000000    6.310000    0.000000
        0.000000    0.000000    6.310000

  Cell parameters (Angstroms/Degrees):

  a =       6.3100    alpha =  90.0000
  b =       6.3100    beta  =  90.0000
  c =       6.3100    gamma =  90.0000

  Initial cell volume =         251.239591 Angs**3

  Temperature of configuration =  0.000     K 

  Pressure of configuration =         0.000 GPa 

  Fractional coordinates of asymmetric unit :

--------------------------------------------------------------------------------
   No.  Atomic       x           y          z         Charge      Occupancy
        Label      (Frac)      (Frac)     (Frac)        (e)         (Frac)  
--------------------------------------------------------------------------------
      1 C1    c    0.057760    0.998300    0.135720     0.77100    1.000000    
      2 N1    c    0.026300 *  0.001560 *  0.903240 *  -1.10000    1.000000    
      3 H1    c    0.902080 *  0.996140 *  0.214040 *   0.02300    1.000000    
      4 H1    c    0.146080 *  0.141080 *  0.182460 *   0.02300    1.000000    
      5 H1    c    0.147880 *  0.855280 *  0.178180 *   0.02300    1.000000    
      6 H2    c    0.942400 *  0.135740 *  0.854220 *   0.54000    1.000000    
      7 H2    c    0.944020 *  0.867920 *  0.850240 *   0.54000    1.000000    
      8 H2    c    0.168740 *  0.003680 *  0.818580 *   0.54000    1.000000    
      9 Pb    c    0.487880 *  0.499920 *  0.491260 *   2.03000    1.000000    
     10 I     c    0.438800 *  0.499940 *  0.988060 *  -1.13000    1.000000    
     11 I     c    0.447140 *  0.999880 *  0.526420 *  -1.13000    1.000000    
     12 I     c    0.974140 *  0.499900 *  0.454700 *  -1.13000    1.000000    
--------------------------------------------------------------------------------



  Molecule list generated from bond lengths :

  Bonds between the following atom types will be excluded : 

   H1    Core   - H2    Core
   H1    Core   - H1    Core
   H2    Core   - H2    Core
   H1    Core   - N1    Core
   H2    Core   - C1    Core
   Pb    Core   - Pb    Core
   I     Core   - I     Core
   Br    Core   - Br    Core
   I     Core   - Pb    Core
   Br    Core   - Pb    Core
   C1    Core   - Pb    Core
   N1    Core   - Pb    Core
   H1    Core   - Pb    Core
   H2    Core   - Pb    Core
   C1    Core   - I     Core
   C1    Core   - Br    Core
   N1    Core   - I     Core
   N1    Core   - Br    Core
   H1    Core   - I     Core
   H1    Core   - Br    Core
   H2    Core   - I     Core
   H2    Core   - Br    Core


  Total number of molecules =     1

--------------------------------------------------------------------------------
Molecule No./:  Atoms
Periodicity  :  
--------------------------------------------------------------------------------
     1  0    : C1   c     1 N1   c     2 H1   c     3 H1   c     4 H1   c     5
             : H2   c     6 H2   c     7 H2   c     8
--------------------------------------------------------------------------------


********************************************************************************
*  Input for Configuration =  23                                               *
********************************************************************************

  Formula = CNH6PbI3                                                    

  Number of irreducible atoms/shells =      12


  Total number atoms/shells =      12

  Dimensionality = 3               :  Bulk   



  Cartesian lattice vectors (Angstroms) :

        6.310000    0.000000    0.000000
        0.000000    6.310000    0.000000
        0.000000    0.000000    6.310000

  Cell parameters (Angstroms/Degrees):

  a =       6.3100    alpha =  90.0000
  b =       6.3100    beta  =  90.0000
  c =       6.3100    gamma =  90.0000

  Initial cell volume =         251.239591 Angs**3

[...]
  Total lattice energy       =           -2989.3385 kJ/(mole unit cells)
--------------------------------------------------------------------------------

********************************************************************************
*  Output for configuration  17                                                *
********************************************************************************


  Components of energy : 

--------------------------------------------------------------------------------
  Interatomic potentials     =           2.39619116 eV
  Three-body potentials      =           0.00962106 eV
  Four-body potentials       =           0.00002948 eV
  Improper torsions          =           0.00000000 eV
  Out of plane potentials    =           0.00000000 eV
  Monopole - monopole (real) =          -5.57479050 eV
  Monopole - monopole (recip)=         -27.59864682 eV
  Monopole - monopole (total)=         -33.17343732 eV
--------------------------------------------------------------------------------
  Total lattice energy       =         -30.76759562 eV
--------------------------------------------------------------------------------
  Total lattice energy       =           -2968.6027 kJ/(mole unit cells)
--------------------------------------------------------------------------------

********************************************************************************
*  Output for configuration  18                                                *
********************************************************************************


  Components of energy : 

--------------------------------------------------------------------------------
  Interatomic potentials     =           3.36533733 eV
  Three-body potentials      =           0.01674869 eV
  Four-body potentials       =           0.00000948 eV
  Improper torsions          =           0.00000000 eV
  Out of plane potentials    =           0.00000000 eV
  Monopole - monopole (real) =          -5.02938377 eV
  Monopole - monopole (recip)=         -29.33551099 eV
  Monopole - monopole (total)=         -34.36489475 eV
--------------------------------------------------------------------------------
  Total lattice energy       =         -30.98279925 eV
--------------------------------------------------------------------------------
  Total lattice energy       =           -2989.3665 kJ/(mole unit cells)
--------------------------------------------------------------------------------

********************************************************************************
*  Output for configuration  19                                                *
********************************************************************************


  Components of energy : 

--------------------------------------------------------------------------------
  Interatomic potentials     =           3.32372831 eV
  Three-body potentials      =           0.01674931 eV
  Four-body potentials       =           0.00000954 eV
  Improper torsions          =           0.00000000 eV
  Out of plane potentials    =           0.00000000 eV
  Monopole - monopole (real) =          -5.01592329 eV
  Monopole - monopole (recip)=         -29.32402330 eV
  Monopole - monopole (total)=         -34.33994659 eV
--------------------------------------------------------------------------------
  Total lattice energy       =         -30.99945942 eV
--------------------------------------------------------------------------------
  Total lattice energy       =           -2990.9740 kJ/(mole unit cells)
--------------------------------------------------------------------------------

********************************************************************************
*  Output for configuration  20                                                *
********************************************************************************


  Components of energy : 

--------------------------------------------------------------------------------
  Interatomic potentials     =           3.27540576 eV
  Three-body potentials      =           0.01675248 eV
  Four-body potentials       =           0.00000946 eV
  Improper torsions          =           0.00000000 eV
  Out of plane potentials    =           0.00000000 eV
  Monopole - monopole (real) =          -4.94805800 eV
  Monopole - monopole (recip)=         -29.31309262 eV
  Monopole - monopole (total)=         -34.26115062 eV
--------------------------------------------------------------------------------
  Total lattice energy       =         -30.96898292 eV
--------------------------------------------------------------------------------
  Total lattice energy       =           -2988.0334 kJ/(mole unit cells)
--------------------------------------------------------------------------------

********************************************************************************
*  Output for configuration  21                                                *
********************************************************************************


  Components of energy : 

--------------------------------------------------------------------------------
  Interatomic potentials     =           3.34454389 eV
  Three-body potentials      =           0.01677878 eV
  Four-body potentials       =           0.00000942 eV
  Improper torsions          =           0.00000000 eV
  Out of plane potentials    =           0.00000000 eV
  Monopole - monopole (real) =          -4.94528507 eV
  Monopole - monopole (recip)=         -29.33373967 eV
  Monopole - monopole (total)=         -34.27902475 eV
--------------------------------------------------------------------------------
  Total lattice energy       =         -30.91769265 eV
--------------------------------------------------------------------------------
  Total lattice energy       =           -2983.0847 kJ/(mole unit cells)
--------------------------------------------------------------------------------

********************************************************************************
*  Output for configuration  22                                                *
********************************************************************************


  Components of energy : 

--------------------------------------------------------------------------------
  Interatomic potentials     =           3.26779755 eV
  Three-body potentials      =           0.01673823 eV
  Four-body potentials       =           0.00000962 eV
  Improper torsions          =           0.00000000 eV
  Out of plane potentials    =           0.00000000 eV
  Monopole - monopole (real) =          -4.97955871 eV
  Monopole - monopole (recip)=         -29.32714488 eV
  Monopole - monopole (total)=         -34.30670360 eV
--------------------------------------------------------------------------------
  Total lattice energy       =         -31.02215820 eV
--------------------------------------------------------------------------------
  Total lattice energy       =           -2993.1640 kJ/(mole unit cells)
--------------------------------------------------------------------------------

********************************************************************************
*  Output for configuration  23                                                *
********************************************************************************


  Components of energy : 

--------------------------------------------------------------------------------
  Interatomic potentials     =           3.30766157 eV
  Three-body potentials      =           0.01675498 eV
  Four-body potentials       =           0.00000955 eV
  Improper torsions          =           0.00000000 eV
  Out of plane potentials    =           0.00000000 eV
  Monopole - monopole (real) =          -4.99105935 eV
  Monopole - monopole (recip)=         -29.33174976 eV
  Monopole - monopole (total)=         -34.32280910 eV
--------------------------------------------------------------------------------
  Total lattice energy       =         -30.99838301 eV
--------------------------------------------------------------------------------
  Total lattice energy       =           -2990.8701 kJ/(mole unit cells)
--------------------------------------------------------------------------------

********************************************************************************
*  Output for configuration  24                                                *
********************************************************************************


  Components of energy : 

--------------------------------------------------------------------------------
  Interatomic potentials     =           2.35175583 eV
  Three-body potentials      =           0.00738296 eV
  Four-body potentials       =           0.00008850 eV
  Improper torsions          =           0.00000000 eV
  Out of plane potentials    =           0.00000000 eV
  Monopole - monopole (real) =          -5.75709453 eV
  Monopole - monopole (recip)=         -27.19804920 eV
  Monopole - monopole (total)=         -32.95514373 eV
--------------------------------------------------------------------------------
  Total lattice energy       =         -30.59591645 eV
--------------------------------------------------------------------------------
  Total lattice energy       =           -2952.0382 kJ/(mole unit cells)
--------------------------------------------------------------------------------

********************************************************************************
*  Output for configuration  25                                                *
********************************************************************************


  Components of energy : 

--------------------------------------------------------------------------------
  Interatomic potentials     =           5.13670819 eV
  Three-body potentials      =           0.01656142 eV
  Four-body potentials       =           0.00000117 eV
  Improper torsions          =           0.00000000 eV
  Out of plane potentials    =           0.00000000 eV
  Monopole - monopole (real) =          -5.20694489 eV
  Monopole - monopole (recip)=         -30.81190602 eV
  Monopole - monopole (total)=         -36.01885091 eV
--------------------------------------------------------------------------------
  Total lattice energy       =         -30.86558013 eV
--------------------------------------------------------------------------------
  Total lattice energy       =           -2978.0567 kJ/(mole unit cells)
--------------------------------------------------------------------------------

********************************************************************************
*  Output for configuration  26                                                *
********************************************************************************


  Components of energy : 

--------------------------------------------------------------------------------
  Interatomic potentials     =           3.26591715 eV
  Three-body potentials      =           0.01675120 eV
  Four-body potentials       =           0.00000961 eV
  Improper torsions          =           0.00000000 eV
  Out of plane potentials    =           0.00000000 eV
  Monopole - monopole (real) =          -4.86945117 eV
  Monopole - monopole (recip)=         -29.32962479 eV
  Monopole - monopole (total)=         -34.19907596 eV
--------------------------------------------------------------------------------
  Total lattice energy       =         -30.91639799 eV
--------------------------------------------------------------------------------
  Total lattice energy       =           -2982.9598 kJ/(mole unit cells)
--------------------------------------------------------------------------------

********************************************************************************
*  Output for configuration  27                                                *
********************************************************************************


  Components of energy : 

--------------------------------------------------------------------------------
  Interatomic potentials     =           3.32938341 eV
  Three-body potentials      =           0.01672750 eV
  Four-body potentials       =           0.00000948 eV
  Improper torsions          =           0.00000000 eV
  Out of plane potentials    =           0.00000000 eV
  Monopole - monopole (real) =          -4.93636396 eV
  Monopole - monopole (recip)=         -29.32520616 eV
  Monopole - monopole (total)=         -34.26157012 eV
--------------------------------------------------------------------------------
  Total lattice energy       =         -30.91544973 eV
--------------------------------------------------------------------------------
  Total lattice energy       =           -2982.8683 kJ/(mole unit cells)
--------------------------------------------------------------------------------

********************************************************************************
*  Output for configuration  28                                                *
********************************************************************************


  Components of energy : 

--------------------------------------------------------------------------------
  Interatomic potentials     =           3.26203542 eV
  Three-body potentials      =           0.01682659 eV
  Four-body potentials       =           0.00000944 eV
  Improper torsions          =           0.00000000 eV
  Out of plane potentials    =           0.00000000 eV
  Monopole - monopole (real) =          -4.79236272 eV
  Monopole - monopole (recip)=         -29.32450677 eV
  Monopole - monopole (total)=         -34.11686949 eV
--------------------------------------------------------------------------------
  Total lattice energy       =         -30.83799804 eV
--------------------------------------------------------------------------------
  Total lattice energy       =           -2975.3954 kJ/(mole unit cells)
--------------------------------------------------------------------------------

********************************************************************************
*  Output for configuration  29                                                *
********************************************************************************


  Components of energy : 

--------------------------------------------------------------------------------
  Interatomic potentials     =           3.26396553 eV
  Three-body potentials      =           0.01678778 eV
  Four-body potentials       =           0.00000967 eV
  Improper torsions          =           0.00000000 eV
  Out of plane potentials    =           0.00000000 eV
  Monopole - monopole (real) =          -4.82594697 eV
  Monopole - monopole (recip)=         -29.30692839 eV
  Monopole - monopole (total)=         -34.13287536 eV
--------------------------------------------------------------------------------
  Total lattice energy       =         -30.85211237 eV
--------------------------------------------------------------------------------
  Total lattice energy       =           -2976.7572 kJ/(mole unit cells)
--------------------------------------------------------------------------------

********************************************************************************
*  Output for configuration  30                                                *
********************************************************************************


  Components of energy : 

--------------------------------------------------------------------------------
  Interatomic potentials     =           3.25058181 eV
  Three-body potentials      =           0.01680229 eV
  Four-body potentials       =           0.00000941 eV
  Improper torsions          =           0.00000000 eV
  Out of plane potentials    =           0.00000000 eV
  Monopole - monopole (real) =          -4.77623128 eV
  Monopole - monopole (recip)=         -29.30860353 eV
  Monopole - monopole (total)=         -34.08483481 eV
--------------------------------------------------------------------------------
  Total lattice energy       =         -30.81744129 eV
--------------------------------------------------------------------------------
  Total lattice energy       =           -2973.4120 kJ/(mole unit cells)
--------------------------------------------------------------------------------

********************************************************************************
*  Output for configuration  31                                                *
********************************************************************************


  Components of energy : 

--------------------------------------------------------------------------------
  Interatomic potentials     =           6.04339437 eV
  Three-body potentials      =           0.01510951 eV
  Four-body potentials       =           0.00000211 eV
  Improper torsions          =           0.00000000 eV
  Out of plane potentials    =           0.00000000 eV
  Monopole - monopole (real) =          -5.20630637 eV
  Monopole - monopole (recip)=         -31.31551794 eV
  Monopole - monopole (total)=         -36.52182431 eV
--------------------------------------------------------------------------------
  Total lattice energy       =         -30.46331831 eV
--------------------------------------------------------------------------------
  Total lattice energy       =           -2939.2445 kJ/(mole unit cells)
--------------------------------------------------------------------------------

********************************************************************************
*  Output for configuration  32                                                *
********************************************************************************


  Components of energy : 

--------------------------------------------------------------------------------
  Interatomic potentials     =           7.08027815 eV
  Three-body potentials      =           0.01403611 eV
  Four-body potentials       =           0.00000442 eV
  Improper torsions          =           0.00000000 eV
  Out of plane potentials    =           0.00000000 eV
  Monopole - monopole (real) =          -5.12247419 eV
  Monopole - monopole (recip)=         -31.78531865 eV
  Monopole - monopole (total)=         -36.90779283 eV
--------------------------------------------------------------------------------
  Total lattice energy       =         -29.81347416 eV
--------------------------------------------------------------------------------
  Total lattice energy       =           -2876.5445 kJ/(mole unit cells)
--------------------------------------------------------------------------------

  Peak dynamic memory used =       1.25 MB 


  Timing analysis for GULP :

--------------------------------------------------------------------------------
  Task / Subroutine                                          Time (Seconds)
--------------------------------------------------------------------------------
  Calculation of reciprocal space energy and derivatives          0.4720
  Calculation of real space energy and derivatives                3.9269
  Calculation of three-body energy and derivatives                0.8200
  Calculation of four-body energy and derivatives                 0.9614
  Calculation of molecules and connectivity                       0.0611
  Sum of squares for fitting                                      0.0681
  Global summation overhead                                       0.0012
--------------------------------------------------------------------------------
  Total CPU time                                                  6.3124
--------------------------------------------------------------------------------



  **** GULP has completed with 1 warning - beware! ****

  Job Finished at 12:36.57  8th May        2018                               

