********************************************************************************
*                       GENERAL UTILITY LATTICE PROGRAM                        *
*                                 Julian Gale                                  *
*                      Nanochemistry Research Institute                        *
*                           Department of Chemistry                            *
*                    Curtin University, Western Australia                      *
********************************************************************************
* Version = 4.4.3 * Last modified =  1st March 2017                            *
********************************************************************************
*  single       - perform a single point run                                   *
*  conv         - constant volume calculation                                  *
*  molecule     - molecule option activated, Coulomb subtract within molecule  *
********************************************************************************

  Job Started  at 01:24.03 16th May        2018                               

  Number of CPUs =     1

  Host name      = navaja                                  


  Total number of configurations input =   1

********************************************************************************
*  Input for Configuration =   1                                               *
********************************************************************************

  Formula = C2N2H12Pb2I6                                                

  Number of irreducible atoms/shells =      24


  Total number atoms/shells =      24

  Dimensionality = 3               :  Bulk   



  Supercell dimensions :  x =   2  y =   1  z =   1

  Cartesian lattice vectors (Angstroms) :

       13.600000    0.000000    0.000000
        0.000000    6.800000    0.000000
        0.000000    0.000000    6.800000

  Cell parameters (Angstroms/Degrees):

  a =      13.6000    alpha =  90.0000
  b =       6.8000    beta  =  90.0000
  c =       6.8000    gamma =  90.0000

  Initial cell volume =         628.864000 Angs**3

  Temperature of configuration =  0.000     K 

  Pressure of configuration =         0.000 GPa 

  Fractional coordinates of asymmetric unit :

--------------------------------------------------------------------------------
   No.  Atomic       x           y          z         Charge      Occupancy
        Label      (Frac)      (Frac)     (Frac)        (e)         (Frac)  
--------------------------------------------------------------------------------
      1 C1    c    0.483040    0.999860    0.006230     0.56691    1.000000    
      2 C1    c    0.983040    0.999860    0.006230     0.56691    1.000000    
      3 N1    c    0.090930    0.000420    0.036390    -0.80882    1.000000    
      4 N1    c    0.590930    0.000420    0.036390    -0.80882    1.000000    
      5 H1    c    0.467895    0.000350    0.847550     0.01691    1.000000    
      6 H1    c    0.967895    0.000350    0.847550     0.01691    1.000000    
      7 H1    c    0.452000    0.132150    0.075420     0.01691    1.000000    
      8 H1    c    0.952000    0.132150    0.075420     0.01691    1.000000    
      9 H1    c    0.452400    0.866730    0.074430     0.01691    1.000000    
     10 H1    c    0.952400    0.866730    0.074430     0.01691    1.000000    
     11 H2    c    0.122885    0.127490    0.978020     0.39706    1.000000    
     12 H2    c    0.622885    0.127490    0.978020     0.39706    1.000000    
     13 H2    c    0.123535    0.877330    0.971830     0.39706    1.000000    
     14 H2    c    0.623535    0.877330    0.971830     0.39706    1.000000    
     15 H2    c    0.109595    0.996470    0.186580     0.39706    1.000000    
     16 H2    c    0.609595    0.996470    0.186580     0.39706    1.000000    
     17 Pb    c    0.188570    0.524920    0.502880     1.49265    1.000000    
     18 Pb    c    0.688570    0.524920    0.502880     1.49265    1.000000    
     19 I     c    0.187115    0.499390    0.953290    -0.83088    1.000000    
     20 I     c    0.687115    0.499390    0.953290    -0.83088    1.000000    
     21 I     c    0.190225    0.977310    0.517650    -0.83088    1.000000    
     22 I     c    0.690225    0.977310    0.517650    -0.83088    1.000000    
     23 I     c    0.473435    0.496920    0.446850    -0.83088    1.000000    
     24 I     c    0.973435    0.496920    0.446850    -0.83088    1.000000    
--------------------------------------------------------------------------------



  Molecule list generated from bond lengths :

  Bonds between the following atom types will be excluded : 

   H1    Core   - H2    Core
   H1    Core   - H1    Core
   H2    Core   - H2    Core
   H1    Core   - N1    Core
   H2    Core   - C1    Core
   Pb    Core   - Pb    Core
   I     Core   - I     Core
   Br    Core   - Br    Core
   I     Core   - Pb    Core
   Br    Core   - Pb    Core
   C1    Core   - Pb    Core
   N1    Core   - Pb    Core
   H1    Core   - Pb    Core
   H2    Core   - Pb    Core
   C1    Core   - I     Core
   C1    Core   - Br    Core
   N1    Core   - I     Core
   N1    Core   - Br    Core
   H1    Core   - I     Core
   H1    Core   - Br    Core
   H2    Core   - I     Core
   H2    Core   - Br    Core


  Total number of molecules =     2

--------------------------------------------------------------------------------
Molecule No./:  Atoms
Periodicity  :  
--------------------------------------------------------------------------------
     1  0    : C1   c     1 N1   c     4 H1   c     5 H1   c     7 H1   c     9
             : H2   c    12 H2   c    14 H2   c    16
     2  0    : C1   c     2 N1   c     3 H1   c     6 H1   c     8 H1   c    10
             : H2   c    11 H2   c    13 H2   c    15
--------------------------------------------------------------------------------


********************************************************************************
*  General input information                                                   *
********************************************************************************

  Species output for all configurations : 

--------------------------------------------------------------------------------
  Species    Type    Atomic    Atomic    Charge       Radii (Angs)     Library
                     Number     Mass       (e)     Cova   Ionic  VDW   Symbol
--------------------------------------------------------------------------------
    C1       Core        6      12.01   0.566912   0.770  0.000  1.530          
    N1       Core        7      14.01  -0.808824   0.750  0.000  1.480          
    H1       Core        1       1.01   0.016912   0.370  0.000  1.080          
    H2       Core        1       1.01   0.397059   0.370  0.000  1.080          
    Pb       Core       82     207.20   1.492647   1.540  0.000  2.300          
    I        Core       53     126.91  -0.830882   1.400  0.000  2.050          
--------------------------------------------------------------------------------


  Lattice summation method               =    Ewald          (3-D)
                                         =    Parry          (2-D)
                                         =    Saunders et al (1-D)
  Accuracy factor for lattice sums       =   12.000


  Time limit = Infinity

  Maximum range for interatomic potentials =    100000.000000 Angstroms

  General interatomic potentials :

--------------------------------------------------------------------------------
Atom  Types   Potential         A         B         C         D     Cutoffs(Ang)
  1     2                                                            Min    Max 
--------------------------------------------------------------------------------
C1   c C1   c Lenn/es 12  6 0.421E-02  3.43      0.00      0.00     3Bond 12.000
N1   c N1   c Lenn/es 12  6 0.297E-02  3.29      0.00      0.00     3Bond 12.000
H1   c H1   c Lenn/es 12  6 0.191E-02  5.14      0.00      0.00     3Bond 12.000
H2   c H2   c Lenn/es 12  6 0.192E-02  2.57      0.00      0.00     3Bond 12.000
Pb   c Pb   c Lenn/es 12  6 0.288E-01  2.83      0.00      0.00     3Bond 12.000
I    c I    c Lenn/es 12  6 0.109E-01  5.46      0.00      0.00     3Bond 12.000
--------------------------------------------------------------------------------

  Intramolecular potentials :

--------------------------------------------------------------------------------
Atom  Types   Potential         A         B         C         D     Cutoffs(Ang)
  1     2                                                            Min    Max 
--------------------------------------------------------------------------------
C1   c N1   c Harmonic       25.5      1.50      0.00      0.00     0.000 1 Bond
H1   c C1   c Harmonic       29.4      1.09      0.00      0.00     0.000 1 Bond
H2   c N1   c Harmonic       32.0      1.03      0.00      0.00     0.000 1 Bond
--------------------------------------------------------------------------------

  Intramolecular Three-body potentials :

  Harmonic form:

--------------------------------------------------------------------------------
Atom    Atom    Atom           Force Constants            Theta     Cutoffs  
  1       2       3     (eVrad**-2/eVrad**-3/eVrad**-4)   (deg)  1-2  1-3  2-3
--------------------------------------------------------------------------------
C1    c H1    c N1    c  4.250        0.0000    0.0000   107.910     Bonded
C1    c H1    c H1    c  3.382        0.0000    0.0000   110.740     Bonded
N1    c H2    c C1    c  4.007        0.0000    0.0000   110.110     Bonded
N1    c H2    c H2    c  3.513        0.0000    0.0000   108.110     Bonded
--------------------------------------------------------------------------------

  Intramolecular Four-body potentials :

  Standard form:

--------------------------------------------------------------------------------
         Atom Types             Force cst Sign Phase Phi0         Cutoffs
   1       2       3       4       (eV)                     1-2  2-3  3-4  4-1
--------------------------------------------------------------------------------
H1    c C1    c N1    c H2    c  0.3374E-02 +   3     0.00  Bonded              
--------------------------------------------------------------------------------

********************************************************************************
*  Output for configuration   1                                                *
********************************************************************************


  Components of energy : 

--------------------------------------------------------------------------------
  Interatomic potentials     =           0.18030445 eV
  Three-body potentials      =           0.01476591 eV
  Four-body potentials       =           0.00017700 eV
  Improper torsions          =           0.00000000 eV
  Out of plane potentials    =           0.00000000 eV
  Monopole - monopole (real) =         -10.55849144 eV
  Monopole - monopole (recip)=         -25.07639583 eV
  Monopole - monopole (total)=         -35.63488727 eV
--------------------------------------------------------------------------------
  Total lattice energy       =         -35.43963991 eV
--------------------------------------------------------------------------------
  Total lattice energy       =           -3419.3835 kJ/(mole unit cells)
--------------------------------------------------------------------------------

  Peak dynamic memory used =       0.53 MB 


  Timing analysis for GULP :

--------------------------------------------------------------------------------
  Task / Subroutine                                          Time (Seconds)
--------------------------------------------------------------------------------
  Calculation of reciprocal space energy and derivatives          0.0007
  Calculation of real space energy and derivatives                0.0046
  Calculation of three-body energy and derivatives                0.0002
  Calculation of four-body energy and derivatives                 0.0002
  Calculation of molecules and connectivity                       0.0002
--------------------------------------------------------------------------------
  Total CPU time                                                  0.0102
--------------------------------------------------------------------------------


  Job Finished at 01:24.03 16th May        2018                               

