********************************************************************************
*                       GENERAL UTILITY LATTICE PROGRAM                        *
*                                 Julian Gale                                  *
*                      Nanochemistry Research Institute                        *
*                           Department of Chemistry                            *
*                    Curtin University, Western Australia                      *
********************************************************************************
* Version = 4.4.3 * Last modified =  1st March 2017                            *
********************************************************************************
*  single       - perform a single point run                                   *
*  conv         - constant volume calculation                                  *
*  molecule     - molecule option activated, Coulomb subtract within molecule  *
********************************************************************************

  Job Started  at 01:24.05 16th May        2018                               

  Number of CPUs =     1

  Host name      = navaja                                  


  Total number of configurations input =   1

********************************************************************************
*  Input for Configuration =   1                                               *
********************************************************************************

  Formula = C2N2H12Pb2I6                                                

  Number of irreducible atoms/shells =      24


  Total number atoms/shells =      24

  Dimensionality = 3               :  Bulk   



  Supercell dimensions :  x =   2  y =   1  z =   1

  Cartesian lattice vectors (Angstroms) :

       12.600000    0.000000    0.000000
        0.000000    6.300000    0.000000
        0.000000    0.000000    6.300000

  Cell parameters (Angstroms/Degrees):

  a =      12.6000    alpha =  90.0000
  b =       6.3000    beta  =  90.0000
  c =       6.3000    gamma =  90.0000

  Initial cell volume =         500.094000 Angs**3

  Temperature of configuration =  0.000     K 

  Pressure of configuration =         0.000 GPa 

  Fractional coordinates of asymmetric unit :

--------------------------------------------------------------------------------
   No.  Atomic       x           y          z         Charge      Occupancy
        Label      (Frac)      (Frac)     (Frac)        (e)         (Frac)  
--------------------------------------------------------------------------------
      1 C1    c    0.463040    0.000030    0.986210     0.56691    1.000000    
      2 C1    c    0.963040    0.000030    0.986210     0.56691    1.000000    
      3 N1    c    0.076580    0.999900    0.046210    -0.80882    1.000000    
      4 N1    c    0.576580    0.999900    0.046210    -0.80882    1.000000    
      5 H1    c    0.456565    0.999930    0.812190     0.01691    1.000000    
      6 H1    c    0.956565    0.999930    0.812190     0.01691    1.000000    
      7 H1    c    0.425355    0.143270    0.051610     0.01691    1.000000    
      8 H1    c    0.925355    0.143270    0.051610     0.01691    1.000000    
      9 H1    c    0.425255    0.857000    0.051780     0.01691    1.000000    
     10 H1    c    0.925255    0.857000    0.051780     0.01691    1.000000    
     11 H2    c    0.116190    0.133890    0.988870     0.39706    1.000000    
     12 H2    c    0.616190    0.133890    0.988870     0.39706    1.000000    
     13 H2    c    0.116110    0.865750    0.988980     0.39706    1.000000    
     14 H2    c    0.616110    0.865750    0.988980     0.39706    1.000000    
     15 H2    c    0.088600    0.999950    0.210400     0.39706    1.000000    
     16 H2    c    0.588600    0.999950    0.210400     0.39706    1.000000    
     17 Pb    c    0.243925    0.499900    0.491480     1.49265    1.000000    
     18 Pb    c    0.743925    0.499900    0.491480     1.49265    1.000000    
     19 I     c    0.219365    0.499950    0.988110    -0.83088    1.000000    
     20 I     c    0.719365    0.499950    0.988110    -0.83088    1.000000    
     21 I     c    0.223480    0.999900    0.526580    -0.83088    1.000000    
     22 I     c    0.723480    0.999900    0.526580    -0.83088    1.000000    
     23 I     c    0.487140    0.499890    0.454710    -0.83088    1.000000    
     24 I     c    0.987140    0.499890    0.454710    -0.83088    1.000000    
--------------------------------------------------------------------------------



  Molecule list generated from bond lengths :

  Bonds between the following atom types will be excluded : 

   H1    Core   - H2    Core
   H1    Core   - H1    Core
   H2    Core   - H2    Core
   H1    Core   - N1    Core
   H2    Core   - C1    Core
   Pb    Core   - Pb    Core
   I     Core   - I     Core
   Br    Core   - Br    Core
   I     Core   - Pb    Core
   Br    Core   - Pb    Core
   C1    Core   - Pb    Core
   N1    Core   - Pb    Core
   H1    Core   - Pb    Core
   H2    Core   - Pb    Core
   C1    Core   - I     Core
   C1    Core   - Br    Core
   N1    Core   - I     Core
   N1    Core   - Br    Core
   H1    Core   - I     Core
   H1    Core   - Br    Core
   H2    Core   - I     Core
   H2    Core   - Br    Core


  Total number of molecules =     2

--------------------------------------------------------------------------------
Molecule No./:  Atoms
Periodicity  :  
--------------------------------------------------------------------------------
     1  0    : C1   c     1 N1   c     4 H1   c     5 H1   c     7 H1   c     9
             : H2   c    12 H2   c    14 H2   c    16
     2  0    : C1   c     2 N1   c     3 H1   c     6 H1   c     8 H1   c    10
             : H2   c    11 H2   c    13 H2   c    15
--------------------------------------------------------------------------------


********************************************************************************
*  General input information                                                   *
********************************************************************************

  Species output for all configurations : 

--------------------------------------------------------------------------------
  Species    Type    Atomic    Atomic    Charge       Radii (Angs)     Library
                     Number     Mass       (e)     Cova   Ionic  VDW   Symbol
--------------------------------------------------------------------------------
    C1       Core        6      12.01   0.566912   0.770  0.000  1.530          
    N1       Core        7      14.01  -0.808824   0.750  0.000  1.480          
    H1       Core        1       1.01   0.016912   0.370  0.000  1.080          
    H2       Core        1       1.01   0.397059   0.370  0.000  1.080          
    Pb       Core       82     207.20   1.492647   1.540  0.000  2.300          
    I        Core       53     126.91  -0.830882   1.400  0.000  2.050          
--------------------------------------------------------------------------------


  Lattice summation method               =    Ewald          (3-D)
                                         =    Parry          (2-D)
                                         =    Saunders et al (1-D)
  Accuracy factor for lattice sums       =   12.000


  Time limit = Infinity

  Maximum range for interatomic potentials =    100000.000000 Angstroms

  General interatomic potentials :

--------------------------------------------------------------------------------
Atom  Types   Potential         A         B         C         D     Cutoffs(Ang)
  1     2                                                            Min    Max 
--------------------------------------------------------------------------------
C1   c C1   c Lenn/es 12  6 0.421E-02  3.43      0.00      0.00     3Bond 12.000
N1   c N1   c Lenn/es 12  6 0.297E-02  3.29      0.00      0.00     3Bond 12.000
H1   c H1   c Lenn/es 12  6 0.191E-02  5.14      0.00      0.00     3Bond 12.000
H2   c H2   c Lenn/es 12  6 0.192E-02  2.57      0.00      0.00     3Bond 12.000
Pb   c Pb   c Lenn/es 12  6 0.112E-03  2.83      0.00      0.00     3Bond 12.000
I    c I    c Lenn/es 12  6 0.109E-01  5.46      0.00      0.00     3Bond 12.000
--------------------------------------------------------------------------------

  Intramolecular potentials :

--------------------------------------------------------------------------------
Atom  Types   Potential         A         B         C         D     Cutoffs(Ang)
  1     2                                                            Min    Max 
--------------------------------------------------------------------------------
C1   c N1   c Harmonic       25.5      1.50      0.00      0.00     0.000 1 Bond
H1   c C1   c Harmonic       29.4      1.09      0.00      0.00     0.000 1 Bond
H2   c N1   c Harmonic       32.0      1.03      0.00      0.00     0.000 1 Bond
--------------------------------------------------------------------------------

  Intramolecular Three-body potentials :

  Harmonic form:

--------------------------------------------------------------------------------
Atom    Atom    Atom           Force Constants            Theta     Cutoffs  
  1       2       3     (eVrad**-2/eVrad**-3/eVrad**-4)   (deg)  1-2  1-3  2-3
--------------------------------------------------------------------------------
C1    c H1    c N1    c  4.250        0.0000    0.0000   107.910     Bonded
C1    c H1    c H1    c  3.382        0.0000    0.0000   110.740     Bonded
N1    c H2    c C1    c  4.007        0.0000    0.0000   110.110     Bonded
N1    c H2    c H2    c  3.513        0.0000    0.0000   108.110     Bonded
--------------------------------------------------------------------------------

  Intramolecular Four-body potentials :

  Standard form:

--------------------------------------------------------------------------------
         Atom Types             Force cst Sign Phase Phi0         Cutoffs
   1       2       3       4       (eV)                     1-2  2-3  3-4  4-1
--------------------------------------------------------------------------------
H1    c C1    c N1    c H2    c  0.3374E-02 +   3     0.00  Bonded              
--------------------------------------------------------------------------------

********************************************************************************
*  Output for configuration   1                                                *
********************************************************************************


  Components of energy : 

--------------------------------------------------------------------------------
  Interatomic potentials     =           1.11673846 eV
  Three-body potentials      =           0.03550132 eV
  Four-body potentials       =           0.00001880 eV
  Improper torsions          =           0.00000000 eV
  Out of plane potentials    =           0.00000000 eV
  Monopole - monopole (real) =         -10.27399697 eV
  Monopole - monopole (recip)=         -27.07429136 eV
  Monopole - monopole (total)=         -37.34828832 eV
--------------------------------------------------------------------------------
  Total lattice energy       =         -36.19602974 eV
--------------------------------------------------------------------------------
  Total lattice energy       =           -3492.3636 kJ/(mole unit cells)
--------------------------------------------------------------------------------

  Peak dynamic memory used =       0.53 MB 


  Timing analysis for GULP :

--------------------------------------------------------------------------------
  Task / Subroutine                                          Time (Seconds)
--------------------------------------------------------------------------------
  Calculation of reciprocal space energy and derivatives          0.0005
  Calculation of real space energy and derivatives                0.0038
  Calculation of three-body energy and derivatives                0.0002
  Calculation of four-body energy and derivatives                 0.0002
  Calculation of molecules and connectivity                       0.0002
--------------------------------------------------------------------------------
  Total CPU time                                                  0.0076
--------------------------------------------------------------------------------


  Job Finished at 01:24.05 16th May        2018                               

