********************************************************************************
*                       GENERAL UTILITY LATTICE PROGRAM                        *
*                                 Julian Gale                                  *
*                      Nanochemistry Research Institute                        *
*                           Department of Chemistry                            *
*                    Curtin University, Western Australia                      *
********************************************************************************
* Version = 4.4.3 * Last modified =  1st March 2017                            *
********************************************************************************
*  single       - perform a single point run                                   *
*  conv         - constant volume calculation                                  *
*  molecule     - molecule option activated, Coulomb subtract within molecule  *
********************************************************************************

  Job Started  at 19:33.40 16th May        2018                               

  Number of CPUs =     1

  Host name      = navaja                                  


  Total number of configurations input =   1

********************************************************************************
*  Input for Configuration =   1                                               *
********************************************************************************

  Formula = C2N2H12Pb2Br6                                               

  Number of irreducible atoms/shells =      24


  Total number atoms/shells =      24

  Dimensionality = 3               :  Bulk   



  Supercell dimensions :  x =   2  y =   1  z =   1

  Cartesian lattice vectors (Angstroms) :

       11.860000    0.000000    0.000000
        0.000000    5.930000    0.000000
        0.000000    0.000000    5.930000

  Cell parameters (Angstroms/Degrees):

  a =      11.8600    alpha =  90.0000
  b =       5.9300    beta  =  90.0000
  c =       5.9300    gamma =  90.0000

  Initial cell volume =         417.055714 Angs**3

  Temperature of configuration =  0.000     K 

  Pressure of configuration =         0.000 GPa 

  Fractional coordinates of asymmetric unit :

--------------------------------------------------------------------------------
   No.  Atomic       x           y          z         Charge      Occupancy
        Label      (Frac)      (Frac)     (Frac)        (e)         (Frac)  
--------------------------------------------------------------------------------
      1 C1    c    0.457660    0.999910    0.980150     0.56691    1.000000    
      2 C1    c    0.957660    0.999910    0.980150     0.56691    1.000000    
      3 N1    c    0.077580    0.999750    0.048590    -0.80882    1.000000    
      4 N1    c    0.577580    0.999750    0.048590    -0.80882    1.000000    
      5 H1    c    0.452515    0.999720    0.795140     0.01691    1.000000    
      6 H1    c    0.952515    0.999720    0.795140     0.01691    1.000000    
      7 H1    c    0.416910    0.152120    0.047760     0.01691    1.000000    
      8 H1    c    0.916910    0.152120    0.047760     0.01691    1.000000    
      9 H1    c    0.416765    0.848040    0.048110     0.01691    1.000000    
     10 H1    c    0.916765    0.848040    0.048110     0.01691    1.000000    
     11 H2    c    0.120030    0.142190    0.989270     0.39706    1.000000    
     12 H2    c    0.620030    0.142190    0.989270     0.39706    1.000000    
     13 H2    c    0.119930    0.857170    0.989330     0.39706    1.000000    
     14 H2    c    0.619930    0.857170    0.989330     0.39706    1.000000    
     15 H2    c    0.088690    0.999770    0.223280     0.39706    1.000000    
     16 H2    c    0.588690    0.999770    0.223280     0.39706    1.000000    
     17 Pb    c    0.248790    0.500070    0.498180     1.49265    1.000000    
     18 Pb    c    0.748790    0.500070    0.498180     1.49265    1.000000    
     19 Br    c    0.223385    0.499640    0.992230    -0.83088    1.000000    
     20 Br    c    0.723385    0.499640    0.992230    -0.83088    1.000000    
     21 Br    c    0.226030    0.000340    0.526040    -0.83088    1.000000    
     22 Br    c    0.726030    0.000340    0.526040    -0.83088    1.000000    
     23 Br    c    0.493330    0.500630    0.459060    -0.83088    1.000000    
     24 Br    c    0.993330    0.500630    0.459060    -0.83088    1.000000    
--------------------------------------------------------------------------------



  Molecule list generated from bond lengths :

  Bonds between the following atom types will be excluded : 

   H1    Core   - H2    Core
   H1    Core   - H1    Core
   H2    Core   - H2    Core
   H1    Core   - N1    Core
   H2    Core   - C1    Core
   Pb    Core   - Pb    Core
   I     Core   - I     Core
   Br    Core   - Br    Core
   I     Core   - Pb    Core
   Br    Core   - Pb    Core
   C1    Core   - Pb    Core
   N1    Core   - Pb    Core
   H1    Core   - Pb    Core
   H2    Core   - Pb    Core
   C1    Core   - I     Core
   C1    Core   - Br    Core
   N1    Core   - I     Core
   N1    Core   - Br    Core
   H1    Core   - I     Core
   H1    Core   - Br    Core
   H2    Core   - I     Core
   H2    Core   - Br    Core


  Total number of molecules =     2

--------------------------------------------------------------------------------
Molecule No./:  Atoms
Periodicity  :  
--------------------------------------------------------------------------------
     1  0    : C1   c     1 N1   c     4 H1   c     5 H1   c     7 H1   c     9
             : H2   c    12 H2   c    14 H2   c    16
     2  0    : C1   c     2 N1   c     3 H1   c     6 H1   c     8 H1   c    10
             : H2   c    11 H2   c    13 H2   c    15
--------------------------------------------------------------------------------


********************************************************************************
*  General input information                                                   *
********************************************************************************

  Species output for all configurations : 

--------------------------------------------------------------------------------
  Species    Type    Atomic    Atomic    Charge       Radii (Angs)     Library
                     Number     Mass       (e)     Cova   Ionic  VDW   Symbol
--------------------------------------------------------------------------------
    C1       Core        6      12.01   0.566912   0.770  0.000  1.530          
    N1       Core        7      14.01  -0.808824   0.750  0.000  1.480          
    H1       Core        1       1.01   0.016912   0.370  0.000  1.080          
    H2       Core        1       1.01   0.397059   0.370  0.000  1.080          
    Pb       Core       82     207.20   1.492647   1.540  0.000  2.300          
    Br       Core       35      79.90  -0.830882   1.210  0.000  1.800          
--------------------------------------------------------------------------------


  Lattice summation method               =    Ewald          (3-D)
                                         =    Parry          (2-D)
                                         =    Saunders et al (1-D)
  Accuracy factor for lattice sums       =   12.000


  Time limit = Infinity

  Maximum range for interatomic potentials =    100000.000000 Angstroms

  General interatomic potentials :

--------------------------------------------------------------------------------
Atom  Types   Potential         A         B         C         D     Cutoffs(Ang)
  1     2                                                            Min    Max 
--------------------------------------------------------------------------------
C1   c C1   c Lenn/es 12  6 0.354E-03  2.30      0.00      0.00     3Bond 12.000
N1   c N1   c Lenn/es 12  6 0.291E-02  2.26      0.00      0.00     3Bond 12.000
H1   c H1   c Lenn/es 12  6 0.157E-02  2.04      0.00      0.00     3Bond 12.000
H2   c H2   c Lenn/es 12  6 0.381E-03  2.07      0.00      0.00     3Bond 12.000
Pb   c Pb   c Lenn/es 12  6 0.579E-02  2.31      0.00      0.00     3Bond 12.000
Br   c Br   c Lenn/es 12  6 0.614E-02  5.14      0.00      0.00     3Bond 12.000
--------------------------------------------------------------------------------

  Intramolecular potentials :

--------------------------------------------------------------------------------
Atom  Types   Potential         A         B         C         D     Cutoffs(Ang)
  1     2                                                            Min    Max 
--------------------------------------------------------------------------------
C1   c N1   c Harmonic       25.5      1.50      0.00      0.00     0.000 1 Bond
H1   c C1   c Harmonic       29.4      1.09      0.00      0.00     0.000 1 Bond
H2   c N1   c Harmonic       32.0      1.03      0.00      0.00     0.000 1 Bond
--------------------------------------------------------------------------------

  Intramolecular Three-body potentials :

  Harmonic form:

--------------------------------------------------------------------------------
Atom    Atom    Atom           Force Constants            Theta     Cutoffs  
  1       2       3     (eVrad**-2/eVrad**-3/eVrad**-4)   (deg)  1-2  1-3  2-3
--------------------------------------------------------------------------------
C1    c H1    c N1    c  4.250        0.0000    0.0000   107.910     Bonded
C1    c H1    c H1    c  3.382        0.0000    0.0000   110.740     Bonded
N1    c H2    c C1    c  4.007        0.0000    0.0000   110.110     Bonded
N1    c H2    c H2    c  3.513        0.0000    0.0000   108.110     Bonded
--------------------------------------------------------------------------------

  Intramolecular Four-body potentials :

  Standard form:

--------------------------------------------------------------------------------
         Atom Types             Force cst Sign Phase Phi0         Cutoffs
   1       2       3       4       (eV)                     1-2  2-3  3-4  4-1
--------------------------------------------------------------------------------
H1    c C1    c N1    c H2    c  0.3374E-02 +   3     0.00  Bonded              
--------------------------------------------------------------------------------

********************************************************************************
*  Output for configuration   1                                                *
********************************************************************************


  Components of energy : 

--------------------------------------------------------------------------------
  Interatomic potentials     =           0.68777386 eV
  Three-body potentials      =           0.03486609 eV
  Four-body potentials       =           0.00002075 eV
  Improper torsions          =           0.00000000 eV
  Out of plane potentials    =           0.00000000 eV
  Monopole - monopole (real) =         -10.89925510 eV
  Monopole - monopole (recip)=         -28.76099289 eV
  Monopole - monopole (total)=         -39.66024798 eV
--------------------------------------------------------------------------------
  Total lattice energy       =         -38.93758728 eV
--------------------------------------------------------------------------------
  Total lattice energy       =           -3756.8820 kJ/(mole unit cells)
--------------------------------------------------------------------------------

  Peak dynamic memory used =       0.53 MB 


  Timing analysis for GULP :

--------------------------------------------------------------------------------
  Task / Subroutine                                          Time (Seconds)
--------------------------------------------------------------------------------
  Calculation of reciprocal space energy and derivatives          0.0006
  Calculation of real space energy and derivatives                0.0039
  Calculation of three-body energy and derivatives                0.0002
  Calculation of four-body energy and derivatives                 0.0002
  Calculation of molecules and connectivity                       0.0002
--------------------------------------------------------------------------------
  Total CPU time                                                  0.0090
--------------------------------------------------------------------------------


  Job Finished at 19:33.40 16th May        2018                               

