********************************************************************************
*                       GENERAL UTILITY LATTICE PROGRAM                        *
*                                 Julian Gale                                  *
*                      Nanochemistry Research Institute                        *
*                           Department of Chemistry                            *
*                    Curtin University, Western Australia                      *
********************************************************************************
* Version = 4.4.3 * Last modified =  1st March 2017                            *
********************************************************************************
*  single       - perform a single point run                                   *
*  conv         - constant volume calculation                                  *
*  molecule     - molecule option activated, Coulomb subtract within molecule  *
********************************************************************************

  Job Started  at 19:33.40 16th May        2018                               

  Number of CPUs =     1

  Host name      = navaja                                  


  Total number of configurations input =   1

********************************************************************************
*  Input for Configuration =   1                                               *
********************************************************************************

  Formula = C2N2H12Pb2Br6                                               

  Number of irreducible atoms/shells =      24


  Total number atoms/shells =      24

  Dimensionality = 3               :  Bulk   



  Supercell dimensions :  x =   2  y =   1  z =   1

  Cartesian lattice vectors (Angstroms) :

       11.900000    0.000000    0.000000
        0.000000    5.950000    0.000000
        0.000000    0.000000    5.950000

  Cell parameters (Angstroms/Degrees):

  a =      11.9000    alpha =  90.0000
  b =       5.9500    beta  =  90.0000
  c =       5.9500    gamma =  90.0000

  Initial cell volume =         421.289750 Angs**3

  Temperature of configuration =  0.000     K 

  Pressure of configuration =         0.000 GPa 

  Fractional coordinates of asymmetric unit :

--------------------------------------------------------------------------------
   No.  Atomic       x           y          z         Charge      Occupancy
        Label      (Frac)      (Frac)     (Frac)        (e)         (Frac)  
--------------------------------------------------------------------------------
      1 C1    c    0.458990    0.999930    0.981090     0.56691    1.000000    
      2 C1    c    0.958990    0.999930    0.981090     0.56691    1.000000    
      3 N1    c    0.078605    0.999560    0.048780    -0.80882    1.000000    
      4 N1    c    0.578605    0.999560    0.048780    -0.80882    1.000000    
      5 H1    c    0.453810    0.999810    0.796730     0.01691    1.000000    
      6 H1    c    0.953810    0.999810    0.796730     0.01691    1.000000    
      7 H1    c    0.418575    0.151740    0.048620     0.01691    1.000000    
      8 H1    c    0.918575    0.151740    0.048620     0.01691    1.000000    
      9 H1    c    0.418280    0.848650    0.048970     0.01691    1.000000    
     10 H1    c    0.918280    0.848650    0.048970     0.01691    1.000000    
     11 H2    c    0.120925    0.141510    0.989560     0.39706    1.000000    
     12 H2    c    0.620925    0.141510    0.989560     0.39706    1.000000    
     13 H2    c    0.120690    0.857390    0.989530     0.39706    1.000000    
     14 H2    c    0.620690    0.857390    0.989530     0.39706    1.000000    
     15 H2    c    0.089875    0.999570    0.222870     0.39706    1.000000    
     16 H2    c    0.589875    0.999570    0.222870     0.39706    1.000000    
     17 Pb    c    0.245940    0.500670    0.495450     1.49265    1.000000    
     18 Pb    c    0.745940    0.500670    0.495450     1.49265    1.000000    
     19 Br    c    0.220870    0.498230    0.991570    -0.83088    1.000000    
     20 Br    c    0.720870    0.498230    0.991570    -0.83088    1.000000    
     21 Br    c    0.224730    0.000710    0.527050    -0.83088    1.000000    
     22 Br    c    0.724730    0.000710    0.527050    -0.83088    1.000000    
     23 Br    c    0.490325    0.501580    0.456940    -0.83088    1.000000    
     24 Br    c    0.990325    0.501580    0.456940    -0.83088    1.000000    
--------------------------------------------------------------------------------



  Molecule list generated from bond lengths :

  Bonds between the following atom types will be excluded : 

   H1    Core   - H2    Core
   H1    Core   - H1    Core
   H2    Core   - H2    Core
   H1    Core   - N1    Core
   H2    Core   - C1    Core
   Pb    Core   - Pb    Core
   I     Core   - I     Core
   Br    Core   - Br    Core
   I     Core   - Pb    Core
   Br    Core   - Pb    Core
   C1    Core   - Pb    Core
   N1    Core   - Pb    Core
   H1    Core   - Pb    Core
   H2    Core   - Pb    Core
   C1    Core   - I     Core
   C1    Core   - Br    Core
   N1    Core   - I     Core
   N1    Core   - Br    Core
   H1    Core   - I     Core
   H1    Core   - Br    Core
   H2    Core   - I     Core
   H2    Core   - Br    Core


  Total number of molecules =     2

--------------------------------------------------------------------------------
Molecule No./:  Atoms
Periodicity  :  
--------------------------------------------------------------------------------
     1  0    : C1   c     1 N1   c     4 H1   c     5 H1   c     7 H1   c     9
             : H2   c    12 H2   c    14 H2   c    16
     2  0    : C1   c     2 N1   c     3 H1   c     6 H1   c     8 H1   c    10
             : H2   c    11 H2   c    13 H2   c    15
--------------------------------------------------------------------------------


********************************************************************************
*  General input information                                                   *
********************************************************************************

  Species output for all configurations : 

--------------------------------------------------------------------------------
  Species    Type    Atomic    Atomic    Charge       Radii (Angs)     Library
                     Number     Mass       (e)     Cova   Ionic  VDW   Symbol
--------------------------------------------------------------------------------
    C1       Core        6      12.01   0.566912   0.770  0.000  1.530          
    N1       Core        7      14.01  -0.808824   0.750  0.000  1.480          
    H1       Core        1       1.01   0.016912   0.370  0.000  1.080          
    H2       Core        1       1.01   0.397059   0.370  0.000  1.080          
    Pb       Core       82     207.20   1.492647   1.540  0.000  2.300          
    Br       Core       35      79.90  -0.830882   1.210  0.000  1.800          
--------------------------------------------------------------------------------


  Lattice summation method               =    Ewald          (3-D)
                                         =    Parry          (2-D)
                                         =    Saunders et al (1-D)
  Accuracy factor for lattice sums       =   12.000


  Time limit = Infinity

  Maximum range for interatomic potentials =    100000.000000 Angstroms

  General interatomic potentials :

--------------------------------------------------------------------------------
Atom  Types   Potential         A         B         C         D     Cutoffs(Ang)
  1     2                                                            Min    Max 
--------------------------------------------------------------------------------
C1   c C1   c Lenn/es 12  6 0.354E-03  2.30      0.00      0.00     3Bond 12.000
N1   c N1   c Lenn/es 12  6 0.291E-02  2.26      0.00      0.00     3Bond 12.000
H1   c H1   c Lenn/es 12  6 0.157E-02  2.04      0.00      0.00     3Bond 12.000
H2   c H2   c Lenn/es 12  6 0.381E-03  2.07      0.00      0.00     3Bond 12.000
Pb   c Pb   c Lenn/es 12  6 0.579E-02  2.31      0.00      0.00     3Bond 12.000
Br   c Br   c Lenn/es 12  6 0.614E-02  5.14      0.00      0.00     3Bond 12.000
--------------------------------------------------------------------------------

  Intramolecular potentials :

--------------------------------------------------------------------------------
Atom  Types   Potential         A         B         C         D     Cutoffs(Ang)
  1     2                                                            Min    Max 
--------------------------------------------------------------------------------
C1   c N1   c Harmonic       25.5      1.50      0.00      0.00     0.000 1 Bond
H1   c C1   c Harmonic       29.4      1.09      0.00      0.00     0.000 1 Bond
H2   c N1   c Harmonic       32.0      1.03      0.00      0.00     0.000 1 Bond
--------------------------------------------------------------------------------

  Intramolecular Three-body potentials :

  Harmonic form:

--------------------------------------------------------------------------------
Atom    Atom    Atom           Force Constants            Theta     Cutoffs  
  1       2       3     (eVrad**-2/eVrad**-3/eVrad**-4)   (deg)  1-2  1-3  2-3
--------------------------------------------------------------------------------
C1    c H1    c N1    c  4.250        0.0000    0.0000   107.910     Bonded
C1    c H1    c H1    c  3.382        0.0000    0.0000   110.740     Bonded
N1    c H2    c C1    c  4.007        0.0000    0.0000   110.110     Bonded
N1    c H2    c H2    c  3.513        0.0000    0.0000   108.110     Bonded
--------------------------------------------------------------------------------

  Intramolecular Four-body potentials :

  Standard form:

--------------------------------------------------------------------------------
         Atom Types             Force cst Sign Phase Phi0         Cutoffs
   1       2       3       4       (eV)                     1-2  2-3  3-4  4-1
--------------------------------------------------------------------------------
H1    c C1    c N1    c H2    c  0.3374E-02 +   3     0.00  Bonded              
--------------------------------------------------------------------------------

********************************************************************************
*  Output for configuration   1                                                *
********************************************************************************


  Components of energy : 

--------------------------------------------------------------------------------
  Interatomic potentials     =           0.63276976 eV
  Three-body potentials      =           0.03452728 eV
  Four-body potentials       =           0.00002209 eV
  Improper torsions          =           0.00000000 eV
  Out of plane potentials    =           0.00000000 eV
  Monopole - monopole (real) =         -10.88994302 eV
  Monopole - monopole (recip)=         -28.66530531 eV
  Monopole - monopole (total)=         -39.55524833 eV
--------------------------------------------------------------------------------
  Total lattice energy       =         -38.88792921 eV
--------------------------------------------------------------------------------
  Total lattice energy       =           -3752.0907 kJ/(mole unit cells)
--------------------------------------------------------------------------------

  Peak dynamic memory used =       0.53 MB 


  Timing analysis for GULP :

--------------------------------------------------------------------------------
  Task / Subroutine                                          Time (Seconds)
--------------------------------------------------------------------------------
  Calculation of reciprocal space energy and derivatives          0.0005
  Calculation of real space energy and derivatives                0.0038
  Calculation of three-body energy and derivatives                0.0002
  Calculation of four-body energy and derivatives                 0.0002
  Calculation of molecules and connectivity                       0.0002
--------------------------------------------------------------------------------
  Total CPU time                                                  0.0079
--------------------------------------------------------------------------------


  Job Finished at 19:33.40 16th May        2018                               

