********************************************************************************
*                       GENERAL UTILITY LATTICE PROGRAM                        *
*                                 Julian Gale                                  *
*                      Nanochemistry Research Institute                        *
*                           Department of Chemistry                            *
*                    Curtin University, Western Australia                      *
********************************************************************************
* Version = 4.2.0 * Last modified =  20th January 2014                         *
********************************************************************************
*  fit          - perform fitting run                                          *
*  conv         - constant volume calculation                                  *
*  molecule     - molecule option activated, Coulomb subtract within molecule  *
*  conjugate    - use conjugate gradients minimiser                            *
********************************************************************************

  Job Started  at 18:55.50  8th May        2018                               

  Number of CPUs =     4

  Host name      = vingilot                                


  Total number of configurations input =  17

********************************************************************************
*  Input for Configuration =   1                                               *
********************************************************************************

  Formula = C2N2H12Pb2Br6                                               

  Number of irreducible atoms/shells =      24


  Total number atoms/shells =      24

  Dimensionality = 3               :  Bulk   



  Supercell dimensions :  x =   2  y =   1  z =   1

  Cartesian lattice vectors (Angstroms) :

       11.860000    0.000000    0.000000
        0.000000    5.930000    0.000000
        0.000000    0.000000    5.930000

  Cell parameters (Angstroms/Degrees):

  a =      11.8600    alpha =  90.0000
  b =       5.9300    beta  =  90.0000
  c =       5.9300    gamma =  90.0000

  Initial cell volume =         417.055714 Angs**3

  Temperature of configuration =  0.000     K 

  Pressure of configuration =         0.000 GPa 

  Fractional coordinates of asymmetric unit :

--------------------------------------------------------------------------------
   No.  Atomic       x           y          z         Charge      Occupancy
        Label      (Frac)      (Frac)     (Frac)        (e)         (Frac)  
--------------------------------------------------------------------------------
      1 C1    c    0.457660    0.999910    0.980150     0.77100    1.000000    
      2 C1    c    0.957660 *  0.999910 *  0.980150 *   0.77100    1.000000    
      3 N1    c    0.077580 *  0.999750 *  0.048590 *  -1.10000    1.000000    
      4 N1    c    0.577580 *  0.999750 *  0.048590 *  -1.10000    1.000000    
      5 H1    c    0.452515 *  0.999720 *  0.795140 *   0.02300    1.000000    
      6 H1    c    0.952515 *  0.999720 *  0.795140 *   0.02300    1.000000    
      7 H1    c    0.416910 *  0.152120 *  0.047760 *   0.02300    1.000000    
      8 H1    c    0.916910 *  0.152120 *  0.047760 *   0.02300    1.000000    
      9 H1    c    0.416765 *  0.848040 *  0.048110 *   0.02300    1.000000    
     10 H1    c    0.916765 *  0.848040 *  0.048110 *   0.02300    1.000000    
     11 H2    c    0.120030 *  0.142190 *  0.989270 *   0.54000    1.000000    
     12 H2    c    0.620030 *  0.142190 *  0.989270 *   0.54000    1.000000    
     13 H2    c    0.119930 *  0.857170 *  0.989330 *   0.54000    1.000000    
     14 H2    c    0.619930 *  0.857170 *  0.989330 *   0.54000    1.000000    
     15 H2    c    0.088690 *  0.999770 *  0.223280 *   0.54000    1.000000    
     16 H2    c    0.588690 *  0.999770 *  0.223280 *   0.54000    1.000000    
     17 Pb    c    0.248790 *  0.500070 *  0.498180 *   2.03000    1.000000    
     18 Pb    c    0.748790 *  0.500070 *  0.498180 *   2.03000    1.000000    
     19 Br    c    0.223385 *  0.499640 *  0.992230 *  -1.13000    1.000000    
     20 Br    c    0.723385 *  0.499640 *  0.992230 *  -1.13000    1.000000    
     21 Br    c    0.226030 *  0.000340 *  0.526040 *  -1.13000    1.000000    
     22 Br    c    0.726030 *  0.000340 *  0.526040 *  -1.13000    1.000000    
     23 Br    c    0.493330 *  0.500630 *  0.459060 *  -1.13000    1.000000    
     24 Br    c    0.993330 *  0.500630 *  0.459060 *  -1.13000    1.000000    
--------------------------------------------------------------------------------



  Molecule list generated from bond lengths :

  Bonds between the following atom types will be excluded : 

   H1    Core   - H2    Core
   H1    Core   - H1    Core
   H2    Core   - H2    Core
   H1    Core   - N1    Core
   H2    Core   - C1    Core
   Pb    Core   - Pb    Core
   I     Core   - I     Core
   Br    Core   - Br    Core
   I     Core   - Pb    Core
   Br    Core   - Pb    Core
   C1    Core   - Pb    Core
   N1    Core   - Pb    Core
   H1    Core   - Pb    Core
   H2    Core   - Pb    Core
   C1    Core   - I     Core
   C1    Core   - Br    Core
   N1    Core   - I     Core
   N1    Core   - Br    Core
   H1    Core   - I     Core
   H1    Core   - Br    Core
   H2    Core   - I     Core
   H2    Core   - Br    Core
   H1    Core   - H2    Core
   H1    Core   - H1    Core
   H2    Core   - H2    Core
   H1    Core   - N1    Core
   H2    Core   - C1    Core
   Pb    Core   - Pb    Core
   I     Core   - I     Core
   Br    Core   - Br    Core
   I     Core   - Pb    Core
   Br    Core   - Pb    Core
   C1    Core   - Pb    Core
   N1    Core   - Pb    Core
   H1    Core   - Pb    Core
   H2    Core   - Pb    Core
   C1    Core   - I     Core
   C1    Core   - Br    Core
   N1    Core   - I     Core
   N1    Core   - Br    Core
   H1    Core   - I     Core
   H1    Core   - Br    Core
   H2    Core   - I     Core
   H2    Core   - Br    Core


  Total number of molecules =     2

--------------------------------------------------------------------------------
Molecule No./:  Atoms
Periodicity  :  
--------------------------------------------------------------------------------
     1  0    : C1   c     1 N1   c     4 H1   c     5 H1   c     7 H1   c     9
             : H2   c    12 H2   c    14 H2   c    16
     2  0    : C1   c     2 N1   c     3 H1   c     6 H1   c     8 H1   c    10
             : H2   c    11 H2   c    13 H2   c    15
--------------------------------------------------------------------------------


********************************************************************************
*  Input for Configuration =   2                                               *
********************************************************************************

  Formula = C2N2H12Pb2Br6                                               

  Number of irreducible atoms/shells =      24


  Total number atoms/shells =      24

  Dimensionality = 3               :  Bulk   



  Supercell dimensions :  x =   2  y =   1  z =   1

  Cartesian lattice vectors (Angstroms) :

       11.840000    0.000000    0.000000
        0.000000    5.920000    0.000000
        0.000000    0.000000    5.920000

  Cell parameters (Angstroms/Degrees):

  a =      11.8400    alpha =  90.0000
  b =       5.9200    beta  =  90.0000
  c =       5.9200    gamma =  90.0000

  Initial cell volume =         414.949376 Angs**3

  Temperature of configuration =  0.000     K 

  Pressure of configuration =         0.000 GPa 

  Fractional coordinates of asymmetric unit :

--------------------------------------------------------------------------------
   No.  Atomic       x           y          z         Charge      Occupancy
        Label      (Frac)      (Frac)     (Frac)        (e)         (Frac)  
--------------------------------------------------------------------------------
      1 C1    c    0.457465    0.999930    0.980080     0.77100    1.000000    
      2 C1    c    0.957465 *  0.999930 *  0.980080 *   0.77100    1.000000    
      3 N1    c    0.077695 *  0.999760 *  0.048420 *  -1.10000    1.000000    
      4 N1    c    0.577695 *  0.999760 *  0.048420 *  -1.10000    1.000000    
      5 H1    c    0.452230 *  0.999720 *  0.794690 *   0.02300    1.000000    
      6 H1    c    0.952230 *  0.999720 *  0.794690 *   0.02300    1.000000    
      7 H1    c    0.416590 *  0.152360 *  0.047750 *   0.02300    1.000000    
      8 H1    c    0.916590 *  0.152360 *  0.047750 *   0.02300    1.000000    
      9 H1    c    0.416445 *  0.847770 *  0.048110 *   0.02300    1.000000    
     10 H1    c    0.916445 *  0.847770 *  0.048110 *   0.02300    1.000000    
     11 H2    c    0.120295 *  0.142450 *  0.989020 *   0.54000    1.000000    
     12 H2    c    0.620295 *  0.142450 *  0.989020 *   0.54000    1.000000    
     13 H2    c    0.120180 *  0.856910 *  0.989080 *   0.54000    1.000000    
     14 H2    c    0.620180 *  0.856910 *  0.989080 *   0.54000    1.000000    
     15 H2    c    0.088925 *  0.999760 *  0.223510 *   0.54000    1.000000    
     16 H2    c    0.588925 *  0.999760 *  0.223510 *   0.54000    1.000000    
     17 Pb    c    0.248950 *  0.500060 *  0.498390 *   2.03000    1.000000    
     18 Pb    c    0.748950 *  0.500060 *  0.498390 *   2.03000    1.000000    
     19 Br    c    0.223385 *  0.499630 *  0.992460 *  -1.13000    1.000000    
     20 Br    c    0.723385 *  0.499630 *  0.992460 *  -1.13000    1.000000    
     21 Br    c    0.226090 *  0.000130 *  0.526240 *  -1.13000    1.000000    
     22 Br    c    0.726090 *  0.000130 *  0.526240 *  -1.13000    1.000000    
     23 Br    c    0.493370 *  0.500860 *  0.459380 *  -1.13000    1.000000    
     24 Br    c    0.993370 *  0.500860 *  0.459380 *  -1.13000    1.000000    
--------------------------------------------------------------------------------



  Molecule list generated from bond lengths :

  Bonds between the following atom types will be excluded : 

   H1    Core   - H2    Core
   H1    Core   - H1    Core
   H2    Core   - H2    Core
   H1    Core   - N1    Core
   H2    Core   - C1    Core
   Pb    Core   - Pb    Core
   I     Core   - I     Core
   Br    Core   - Br    Core
   I     Core   - Pb    Core
   Br    Core   - Pb    Core
   C1    Core   - Pb    Core
   N1    Core   - Pb    Core
   H1    Core   - Pb    Core
   H2    Core   - Pb    Core
   C1    Core   - I     Core
   C1    Core   - Br    Core
   N1    Core   - I     Core
   N1    Core   - Br    Core
   H1    Core   - I     Core
   H1    Core   - Br    Core
   H2    Core   - I     Core
   H2    Core   - Br    Core
   H1    Core   - H2    Core
   H1    Core   - H1    Core
   H2    Core   - H2    Core
   H1    Core   - N1    Core
   H2    Core   - C1    Core
   Pb    Core   - Pb    Core
   I     Core   - I     Core
   Br    Core   - Br    Core
   I     Core   - Pb    Core
   Br    Core   - Pb    Core
   C1    Core   - Pb    Core
   N1    Core   - Pb    Core
   H1    Core   - Pb    Core
   H2    Core   - Pb    Core
   C1    Core   - I     Core
   C1    Core   - Br    Core
   N1    Core   - I     Core
   N1    Core   - Br    Core
   H1    Core   - I     Core
   H1    Core   - Br    Core
   H2    Core   - I     Core
   H2    Core   - Br    Core


  Total number of molecules =     2

--------------------------------------------------------------------------------
Molecule No./:  Atoms
Periodicity  :  
--------------------------------------------------------------------------------
     1  0    : C1   c     1 N1   c     4 H1   c     5 H1   c     7 H1   c     9
             : H2   c    12 H2   c    14 H2   c    16
     2  0    : C1   c     2 N1   c     3 H1   c     6 H1   c     8 H1   c    10
             : H2   c    11 H2   c    13 H2   c    15
--------------------------------------------------------------------------------


********************************************************************************
*  Input for Configuration =   3                                               *
********************************************************************************

  Formula = C2N2H12Pb2Br6                                               

  Number of irreducible atoms/shells =      24


  Total number atoms/shells =      24

  Dimensionality = 3               :  Bulk   



  Supercell dimensions :  x =   2  y =   1  z =   1

  Cartesian lattice vectors (Angstroms) :

       11.900000    0.000000    0.000000
        0.000000    5.950000    0.000000
        0.000000    0.000000    5.950000

  Cell parameters (Angstroms/Degrees):

  a =      11.9000    alpha =  90.0000
  b =       5.9500    beta  =  90.0000
  c =       5.9500    gamma =  90.0000

  Initial cell volume =         421.289750 Angs**3

  Temperature of configuration =  0.000     K 

  Pressure of configuration =         0.000 GPa 

  Fractional coordinates of asymmetric unit :

--------------------------------------------------------------------------------
   No.  Atomic       x           y          z         Charge      Occupancy
        Label      (Frac)      (Frac)     (Frac)        (e)         (Frac)  
--------------------------------------------------------------------------------
      1 C1    c    0.458990    0.999930    0.981090     0.77100    1.000000    
      2 C1    c    0.958990 *  0.999930 *  0.981090 *   0.77100    1.000000    
      3 N1    c    0.078605 *  0.999560 *  0.048780 *  -1.10000    1.000000    
      4 N1    c    0.578605 *  0.999560 *  0.048780 *  -1.10000    1.000000    
      5 H1    c    0.453810 *  0.999810 *  0.796730 *   0.02300    1.000000    
      6 H1    c    0.953810 *  0.999810 *  0.796730 *   0.02300    1.000000    
      7 H1    c    0.418575 *  0.151740 *  0.048620 *   0.02300    1.000000    
      8 H1    c    0.918575 *  0.151740 *  0.048620 *   0.02300    1.000000    
      9 H1    c    0.418280 *  0.848650 *  0.048970 *   0.02300    1.000000    
     10 H1    c    0.918280 *  0.848650 *  0.048970 *   0.02300    1.000000    
     11 H2    c    0.120925 *  0.141510 *  0.989560 *   0.54000    1.000000    
     12 H2    c    0.620925 *  0.141510 *  0.989560 *   0.54000    1.000000    
     13 H2    c    0.120690 *  0.857390 *  0.989530 *   0.54000    1.000000    
     14 H2    c    0.620690 *  0.857390 *  0.989530 *   0.54000    1.000000    
     15 H2    c    0.089875 *  0.999570 *  0.222870 *   0.54000    1.000000    
     16 H2    c    0.589875 *  0.999570 *  0.222870 *   0.54000    1.000000    
     17 Pb    c    0.245940 *  0.500670 *  0.495450 *   2.03000    1.000000    
     18 Pb    c    0.745940 *  0.500670 *  0.495450 *   2.03000    1.000000    
     19 Br    c    0.220870 *  0.498230 *  0.991570 *  -1.13000    1.000000    
     20 Br    c    0.720870 *  0.498230 *  0.991570 *  -1.13000    1.000000    
     21 Br    c    0.224730 *  0.000710 *  0.527050 *  -1.13000    1.000000    
     22 Br    c    0.724730 *  0.000710 *  0.527050 *  -1.13000    1.000000    
     23 Br    c    0.490325 *  0.501580 *  0.456940 *  -1.13000    1.000000    
     24 Br    c    0.990325 *  0.501580 *  0.456940 *  -1.13000    1.000000    
--------------------------------------------------------------------------------



  Molecule list generated from bond lengths :

  Bonds between the following atom types will be excluded : 

   H1    Core   - H2    Core
   H1    Core   - H1    Core
   H2    Core   - H2    Core
   H1    Core   - N1    Core
   H2    Core   - C1    Core
   Pb    Core   - Pb    Core
   I     Core   - I     Core
   Br    Core   - Br    Core
   I     Core   - Pb    Core
   Br    Core   - Pb    Core
   C1    Core   - Pb    Core
   N1    Core   - Pb    Core
   H1    Core   - Pb    Core
   H2    Core   - Pb    Core
   C1    Core   - I     Core
   C1    Core   - Br    Core
   N1    Core   - I     Core
   N1    Core   - Br    Core
   H1    Core   - I     Core
   H1    Core   - Br    Core
   H2    Core   - I     Core
   H2    Core   - Br    Core
   H1    Core   - H2    Core
   H1    Core   - H1    Core
   H2    Core   - H2    Core
   H1    Core   - N1    Core
   H2    Core   - C1    Core
   Pb    Core   - Pb    Core
   I     Core   - I     Core
   Br    Core   - Br    Core
   I     Core   - Pb    Core
   Br    Core   - Pb    Core
   C1    Core   - Pb    Core
   N1    Core   - Pb    Core
   H1    Core   - Pb    Core
   H2    Core   - Pb    Core
   C1    Core   - I     Core
   C1    Core   - Br    Core
   N1    Core   - I     Core
   N1    Core   - Br    Core
   H1    Core   - I     Core
   H1    Core   - Br    Core
   H2    Core   - I     Core
   H2    Core   - Br    Core


  Total number of molecules =     2

--------------------------------------------------------------------------------
Molecule No./:  Atoms
Periodicity  :  
--------------------------------------------------------------------------------
     1  0    : C1   c     1 N1   c     4 H1   c     5 H1   c     7 H1   c     9
             : H2   c    12 H2   c    14 H2   c    16
     2  0    : C1   c     2 N1   c     3 H1   c     6 H1   c     8 H1   c    10
             : H2   c    11 H2   c    13 H2   c    15
--------------------------------------------------------------------------------


********************************************************************************
*  Input for Configuration =   4                                               *
********************************************************************************

  Formula = C2N2H12Pb2Br6                                               

  Number of irreducible atoms/shells =      24


  Total number atoms/shells =      24

  Dimensionality = 3               :  Bulk   



  Supercell dimensions :  x =   2  y =   1  z =   1

  Cartesian lattice vectors (Angstroms) :

       11.800000    0.000000    0.000000
        0.000000    5.900000    0.000000
        0.000000    0.000000    5.900000

  Cell parameters (Angstroms/Degrees):

  a =      11.8000    alpha =  90.0000
  b =       5.9000    beta  =  90.0000
  c =       5.9000    gamma =  90.0000

  Initial cell volume =         410.758000 Angs**3

  Temperature of configuration =  0.000     K 

  Pressure of configuration =         0.000 GPa 

  Fractional coordinates of asymmetric unit :

--------------------------------------------------------------------------------
   No.  Atomic       x           y          z         Charge      Occupancy
        Label      (Frac)      (Frac)     (Frac)        (e)         (Frac)  
--------------------------------------------------------------------------------
      1 C1    c    0.457135    0.999870    0.979680     0.77100    1.000000    
      2 C1    c    0.957135 *  0.999870 *  0.979680 *   0.77100    1.000000    
      3 N1    c    0.077775 *  0.999700 *  0.047530 *  -1.10000    1.000000    
      4 N1    c    0.577775 *  0.999700 *  0.047530 *  -1.10000    1.000000    
      5 H1    c    0.451800 *  0.999650 *  0.793730 *   0.02300    1.000000    
      6 H1    c    0.951800 *  0.999650 *  0.793730 *   0.02300    1.000000    
      7 H1    c    0.416270 *  0.152900 *  0.047840 *   0.02300    1.000000    
      8 H1    c    0.916270 *  0.152900 *  0.047840 *   0.02300    1.000000    
      9 H1    c    0.416130 *  0.847110 *  0.048160 *   0.02300    1.000000    
     10 H1    c    0.916130 *  0.847110 *  0.048160 *   0.02300    1.000000    
     11 H2    c    0.120465 *  0.142810 *  0.987780 *   0.54000    1.000000    
     12 H2    c    0.620465 *  0.142810 *  0.987780 *   0.54000    1.000000    
     13 H2    c    0.120355 *  0.856420 *  0.987890 *   0.54000    1.000000    
     14 H2    c    0.620355 *  0.856420 *  0.987890 *   0.54000    1.000000    
     15 H2    c    0.089290 *  0.999700 *  0.223100 *   0.54000    1.000000    
     16 H2    c    0.589290 *  0.999700 *  0.223100 *   0.54000    1.000000    
     17 Pb    c    0.248870 *  0.500040 *  0.498640 *   2.03000    1.000000    
     18 Pb    c    0.748870 *  0.500040 *  0.498640 *   2.03000    1.000000    
     19 Br    c    0.223955 *  0.499980 *  0.993420 *  -1.13000    1.000000    
     20 Br    c    0.723955 *  0.499980 *  0.993420 *  -1.13000    1.000000    
     21 Br    c    0.225820 *  0.000090 *  0.525740 *  -1.13000    1.000000    
     22 Br    c    0.725820 *  0.000090 *  0.525740 *  -1.13000    1.000000    
     23 Br    c    0.493745 *  0.501070 *  0.463620 *  -1.13000    1.000000    
     24 Br    c    0.993745 *  0.501070 *  0.463620 *  -1.13000    1.000000    
--------------------------------------------------------------------------------



  Molecule list generated from bond lengths :

  Bonds between the following atom types will be excluded : 

   H1    Core   - H2    Core
   H1    Core   - H1    Core
   H2    Core   - H2    Core
   H1    Core   - N1    Core
   H2    Core   - C1    Core
   Pb    Core   - Pb    Core
   I     Core   - I     Core
   Br    Core   - Br    Core
   I     Core   - Pb    Core
   Br    Core   - Pb    Core
   C1    Core   - Pb    Core
   N1    Core   - Pb    Core
   H1    Core   - Pb    Core
   H2    Core   - Pb    Core
   C1    Core   - I     Core
   C1    Core   - Br    Core
   N1    Core   - I     Core
   N1    Core   - Br    Core
   H1    Core   - I     Core
   H1    Core   - Br    Core
   H2    Core   - I     Core
   H2    Core   - Br    Core
   H1    Core   - H2    Core
   H1    Core   - H1    Core
   H2    Core   - H2    Core
   H1    Core   - N1    Core
   H2    Core   - C1    Core
   Pb    Core   - Pb    Core
   I     Core   - I     Core
   Br    Core   - Br    Core
   I     Core   - Pb    Core
   Br    Core   - Pb    Core
   C1    Core   - Pb    Core
   N1    Core   - Pb    Core
   H1    Core   - Pb    Core
   H2    Core   - Pb    Core
   C1    Core   - I     Core
   C1    Core   - Br    Core
   N1    Core   - I     Core
   N1    Core   - Br    Core
   H1    Core   - I     Core
   H1    Core   - Br    Core
   H2    Core   - I     Core
   H2    Core   - Br    Core


  Total number of molecules =     2

--------------------------------------------------------------------------------
Molecule No./:  Atoms
Periodicity  :  
--------------------------------------------------------------------------------
     1  0    : C1   c     1 N1   c     4 H1   c     5 H1   c     7 H1   c     9
             : H2   c    12 H2   c    14 H2   c    16
     2  0    : C1   c     2 N1   c     3 H1   c     6 H1   c     8 H1   c    10
             : H2   c    11 H2   c    13 H2   c    15
--------------------------------------------------------------------------------


********************************************************************************
*  Input for Configuration =   5                                               *
********************************************************************************

  Formula = C2N2H12Pb2Br6                                               

  Number of irreducible atoms/shells =      24


  Total number atoms/shells =      24

  Dimensionality = 3               :  Bulk   



  Supercell dimensions :  x =   2  y =   1  z =   1

  Cartesian lattice vectors (Angstroms) :

       11.760000    0.000000    0.000000
        0.000000    5.880000    0.000000
        0.000000    0.000000    5.880000

  Cell parameters (Angstroms/Degrees):

  a =      11.7600    alpha =  90.0000
  b =       5.8800    beta  =  90.0000
  c =       5.8800    gamma =  90.0000

  Initial cell volume =         406.594944 Angs**3

  Temperature of configuration =  0.000     K 

  Pressure of configuration =         0.000 GPa 

  Fractional coordinates of asymmetric unit :

--------------------------------------------------------------------------------
   No.  Atomic       x           y          z         Charge      Occupancy
        Label      (Frac)      (Frac)     (Frac)        (e)         (Frac)  
--------------------------------------------------------------------------------
      1 C1    c    0.456940    0.000000    0.979780     0.77100    1.000000    
      2 C1    c    0.956940 *  0.000000 *  0.979780 *   0.77100    1.000000    
      3 N1    c    0.077840 *  0.999740 *  0.048820 *  -1.10000    1.000000    
      4 N1    c    0.577840 *  0.999740 *  0.048820 *  -1.10000    1.000000    
      5 H1    c    0.451640 *  0.999810 *  0.793130 *   0.02300    1.000000    
      6 H1    c    0.951640 *  0.999810 *  0.793130 *   0.02300    1.000000    
      7 H1    c    0.415760 *  0.153580 *  0.047830 *   0.02300    1.000000    
      8 H1    c    0.915760 *  0.153580 *  0.047830 *   0.02300    1.000000    
      9 H1    c    0.415590 *  0.846770 *  0.048140 *   0.02300    1.000000    
     10 H1    c    0.915590 *  0.846770 *  0.048140 *   0.02300    1.000000    
     11 H2    c    0.120855 *  0.143270 *  0.989160 *   0.54000    1.000000    
     12 H2    c    0.620855 *  0.143270 *  0.989160 *   0.54000    1.000000    
     13 H2    c    0.120620 *  0.855840 *  0.989220 *   0.54000    1.000000    
     14 H2    c    0.620620 *  0.855840 *  0.989220 *   0.54000    1.000000    
     15 H2    c    0.089100 *  0.999690 *  0.225050 *   0.54000    1.000000    
     16 H2    c    0.589100 *  0.999690 *  0.225050 *   0.54000    1.000000    
     17 Pb    c    0.248255 *  0.500070 *  0.496670 *   2.03000    1.000000    
     18 Pb    c    0.748255 *  0.500070 *  0.496670 *   2.03000    1.000000    
     19 Br    c    0.224210 *  0.500040 *  0.992600 *  -1.13000    1.000000    
     20 Br    c    0.724210 *  0.500040 *  0.992600 *  -1.13000    1.000000    
     21 Br    c    0.226640 *  0.000410 *  0.527550 *  -1.13000    1.000000    
     22 Br    c    0.726640 *  0.000410 *  0.527550 *  -1.13000    1.000000    
     23 Br    c    0.494160 *  0.500120 *  0.459190 *  -1.13000    1.000000    
     24 Br    c    0.994160 *  0.500120 *  0.459190 *  -1.13000    1.000000    
--------------------------------------------------------------------------------



  Molecule list generated from bond lengths :

  Bonds between the following atom types will be excluded : 

   H1    Core   - H2    Core
   H1    Core   - H1    Core
   H2    Core   - H2    Core
   H1    Core   - N1    Core
   H2    Core   - C1    Core
   Pb    Core   - Pb    Core
   I     Core   - I     Core
   Br    Core   - Br    Core
   I     Core   - Pb    Core
   Br    Core   - Pb    Core
   C1    Core   - Pb    Core
   N1    Core   - Pb    Core
   H1    Core   - Pb    Core
   H2    Core   - Pb    Core
   C1    Core   - I     Core
   C1    Core   - Br    Core
   N1    Core   - I     Core
   N1    Core   - Br    Core
   H1    Core   - I     Core
   H1    Core   - Br    Core
   H2    Core   - I     Core
   H2    Core   - Br    Core
   H1    Core   - H2    Core
   H1    Core   - H1    Core
   H2    Core   - H2    Core
   H1    Core   - N1    Core
   H2    Core   - C1    Core
   Pb    Core   - Pb    Core
   I     Core   - I     Core
   Br    Core   - Br    Core
   I     Core   - Pb    Core
   Br    Core   - Pb    Core
   C1    Core   - Pb    Core
   N1    Core   - Pb    Core
   H1    Core   - Pb    Core
   H2    Core   - Pb    Core
   C1    Core   - I     Core
   C1    Core   - Br    Core
   N1    Core   - I     Core
   N1    Core   - Br    Core
   H1    Core   - I     Core
   H1    Core   - Br    Core
   H2    Core   - I     Core
   H2    Core   - Br    Core


  Total number of molecules =     2

--------------------------------------------------------------------------------
Molecule No./:  Atoms
Periodicity  :  
--------------------------------------------------------------------------------
     1  0    : C1   c     1 N1   c     4 H1   c     5 H1   c     7 H1   c     9
             : H2   c    12 H2   c    14 H2   c    16
     2  0    : C1   c     2 N1   c     3 H1   c     6 H1   c     8 H1   c    10
             : H2   c    11 H2   c    13 H2   c    15
--------------------------------------------------------------------------------


********************************************************************************
*  Input for Configuration =   6                                               *
********************************************************************************

  Formula = C2N2H12Pb2Br6                                               

  Number of irreducible atoms/shells =      24


  Total number atoms/shells =      24

  Dimensionality = 3               :  Bulk   



  Supercell dimensions :  x =   2  y =   1  z =   1

  Cartesian lattice vectors (Angstroms) :

       12.000000    0.000000    0.000000
        0.000000    6.000000    0.000000
        0.000000    0.000000    6.000000

  Cell parameters (Angstroms/Degrees):

  a =      12.0000    alpha =  90.0000
  b =       6.0000    beta  =  90.0000
  c =       6.0000    gamma =  90.0000

  Initial cell volume =         432.000000 Angs**3

  Temperature of configuration =  0.000     K 

  Pressure of configuration =         0.000 GPa 

  Fractional coordinates of asymmetric unit :

--------------------------------------------------------------------------------
   No.  Atomic       x           y          z         Charge      Occupancy
        Label      (Frac)      (Frac)     (Frac)        (e)         (Frac)  
--------------------------------------------------------------------------------
      1 C1    c    0.460605    0.999640    0.983080     0.77100    1.000000    
      2 C1    c    0.960605 *  0.999640 *  0.983080 *   0.77100    1.000000    
      3 N1    c    0.079875 *  0.999640 *  0.046120 *  -1.10000    1.000000    
      4 N1    c    0.579875 *  0.999640 *  0.046120 *  -1.10000    1.000000    
      5 H1    c    0.453895 *  0.999430 *  0.800390 *   0.02300    1.000000    
      6 H1    c    0.953895 *  0.999430 *  0.800390 *   0.02300    1.000000    
      7 H1    c    0.421085 *  0.150140 *  0.051530 *   0.02300    1.000000    
      8 H1    c    0.921085 *  0.150140 *  0.051530 *   0.02300    1.000000    
      9 H1    c    0.421035 *  0.849360 *  0.051890 *   0.02300    1.000000    
     10 H1    c    0.921035 *  0.849360 *  0.051890 *   0.02300    1.000000    
     11 H2    c    0.121170 *  0.140580 *  0.985990 *   0.54000    1.000000    
     12 H2    c    0.621170 *  0.140580 *  0.985990 *   0.54000    1.000000    
     13 H2    c    0.121135 *  0.858530 *  0.986200 *   0.54000    1.000000    
     14 H2    c    0.621135 *  0.858530 *  0.986200 *   0.54000    1.000000    
     15 H2    c    0.092525 *  0.999750 *  0.218590 *   0.54000    1.000000    
     16 H2    c    0.592525 *  0.999750 *  0.218590 *   0.54000    1.000000    
     17 Pb    c    0.242775 *  0.500220 *  0.496580 *   2.03000    1.000000    
     18 Pb    c    0.742775 *  0.500220 *  0.496580 *   2.03000    1.000000    
     19 Br    c    0.219220 *  0.500070 *  0.992120 *  -1.13000    1.000000    
     20 Br    c    0.719220 *  0.500070 *  0.992120 *  -1.13000    1.000000    
     21 Br    c    0.222320 *  0.001180 *  0.522690 *  -1.13000    1.000000    
     22 Br    c    0.722320 *  0.001180 *  0.522690 *  -1.13000    1.000000    
     23 Br    c    0.485970 *  0.500780 *  0.461960 *  -1.13000    1.000000    
     24 Br    c    0.985970 *  0.500780 *  0.461960 *  -1.13000    1.000000    
--------------------------------------------------------------------------------



  Molecule list generated from bond lengths :

  Bonds between the following atom types will be excluded : 

   H1    Core   - H2    Core
   H1    Core   - H1    Core
   H2    Core   - H2    Core
   H1    Core   - N1    Core
   H2    Core   - C1    Core
   Pb    Core   - Pb    Core
   I     Core   - I     Core
   Br    Core   - Br    Core
   I     Core   - Pb    Core
   Br    Core   - Pb    Core
   C1    Core   - Pb    Core
   N1    Core   - Pb    Core
   H1    Core   - Pb    Core
   H2    Core   - Pb    Core
   C1    Core   - I     Core
   C1    Core   - Br    Core
   N1    Core   - I     Core
   N1    Core   - Br    Core
   H1    Core   - I     Core
   H1    Core   - Br    Core
   H2    Core   - I     Core
   H2    Core   - Br    Core
   H1    Core   - H2    Core
   H1    Core   - H1    Core
   H2    Core   - H2    Core
   H1    Core   - N1    Core
   H2    Core   - C1    Core
   Pb    Core   - Pb    Core
   I     Core   - I     Core
   Br    Core   - Br    Core
   I     Core   - Pb    Core
   Br    Core   - Pb    Core
   C1    Core   - Pb    Core
   N1    Core   - Pb    Core
   H1    Core   - Pb    Core
   H2    Core   - Pb    Core
   C1    Core   - I     Core
   C1    Core   - Br    Core
   N1    Core   - I     Core
   N1    Core   - Br    Core
   H1    Core   - I     Core
   H1    Core   - Br    Core
   H2    Core   - I     Core
   H2    Core   - Br    Core


  Total number of molecules =     2

--------------------------------------------------------------------------------
Molecule No./:  Atoms
Periodicity  :  
--------------------------------------------------------------------------------
     1  0    : C1   c     1 N1   c     4 H1   c     5 H1   c     7 H1   c     9
             : H2   c    12 H2   c    14 H2   c    16
     2  0    : C1   c     2 N1   c     3 H1   c     6 H1   c     8 H1   c    10
             : H2   c    11 H2   c    13 H2   c    15
--------------------------------------------------------------------------------


********************************************************************************
*  Input for Configuration =   7                                               *
********************************************************************************

  Formula = C2N2H12Pb2Br6                                               

  Number of irreducible atoms/shells =      24


  Total number atoms/shells =      24

  Dimensionality = 3               :  Bulk   



  Supercell dimensions :  x =   2  y =   1  z =   1

  Cartesian lattice vectors (Angstroms) :

       11.700000    0.000000    0.000000
        0.000000    5.850000    0.000000
        0.000000    0.000000    5.850000

  Cell parameters (Angstroms/Degrees):

  a =      11.7000    alpha =  90.0000
  b =       5.8500    beta  =  90.0000
  c =       5.8500    gamma =  90.0000

  Initial cell volume =         400.403250 Angs**3

  Temperature of configuration =  0.000     K 

  Pressure of configuration =         0.000 GPa 

  Fractional coordinates of asymmetric unit :

--------------------------------------------------------------------------------
   No.  Atomic       x           y          z         Charge      Occupancy
        Label      (Frac)      (Frac)     (Frac)        (e)         (Frac)  
--------------------------------------------------------------------------------
      1 C1    c    0.456245    0.999910    0.978700     0.77100    1.000000    
      2 C1    c    0.956245 *  0.999910 *  0.978700 *   0.77100    1.000000    
      3 N1    c    0.077275 *  0.999720 *  0.050780 *  -1.10000    1.000000    
      4 N1    c    0.577275 *  0.999720 *  0.050780 *  -1.10000    1.000000    
      5 H1    c    0.452235 *  0.999680 *  0.791040 *   0.02300    1.000000    
      6 H1    c    0.952235 *  0.999680 *  0.791040 *   0.02300    1.000000    
      7 H1    c    0.414635 *  0.154350 *  0.046150 *   0.02300    1.000000    
      8 H1    c    0.914635 *  0.154350 *  0.046150 *   0.02300    1.000000    
      9 H1    c    0.414495 *  0.845780 *  0.046480 *   0.02300    1.000000    
     10 H1    c    0.914495 *  0.845780 *  0.046480 *   0.02300    1.000000    
     11 H2    c    0.120725 *  0.143980 *  0.991510 *   0.54000    1.000000    
     12 H2    c    0.620725 *  0.143980 *  0.991510 *   0.54000    1.000000    
     13 H2    c    0.120615 *  0.855350 *  0.991550 *   0.54000    1.000000    
     14 H2    c    0.620615 *  0.855350 *  0.991550 *   0.54000    1.000000    
     15 H2    c    0.087490 *  0.999700 *  0.228050 *   0.54000    1.000000    
     16 H2    c    0.587490 *  0.999700 *  0.228050 *   0.54000    1.000000    
     17 Pb    c    0.249950 *  0.499930 *  0.496100 *   2.03000    1.000000    
     18 Pb    c    0.749950 *  0.499930 *  0.496100 *   2.03000    1.000000    
     19 Br    c    0.225535 *  0.499590 *  0.992770 *  -1.13000    1.000000    
     20 Br    c    0.725535 *  0.499590 *  0.992770 *  -1.13000    1.000000    
     21 Br    c    0.226000 *  0.999930 *  0.533150 *  -1.13000    1.000000    
     22 Br    c    0.726000 *  0.999930 *  0.533150 *  -1.13000    1.000000    
     23 Br    c    0.496405 *  0.501420 *  0.450870 *  -1.13000    1.000000    
     24 Br    c    0.996405 *  0.501420 *  0.450870 *  -1.13000    1.000000    
--------------------------------------------------------------------------------



  Molecule list generated from bond lengths :

  Bonds between the following atom types will be excluded : 

   H1    Core   - H2    Core
   H1    Core   - H1    Core
   H2    Core   - H2    Core
   H1    Core   - N1    Core
   H2    Core   - C1    Core
   Pb    Core   - Pb    Core
   I     Core   - I     Core
   Br    Core   - Br    Core
   I     Core   - Pb    Core
   Br    Core   - Pb    Core
   C1    Core   - Pb    Core
   N1    Core   - Pb    Core
   H1    Core   - Pb    Core
   H2    Core   - Pb    Core
   C1    Core   - I     Core
   C1    Core   - Br    Core
   N1    Core   - I     Core
   N1    Core   - Br    Core
   H1    Core   - I     Core
   H1    Core   - Br    Core
   H2    Core   - I     Core
   H2    Core   - Br    Core
   H1    Core   - H2    Core
   H1    Core   - H1    Core
   H2    Core   - H2    Core
   H1    Core   - N1    Core
   H2    Core   - C1    Core
   Pb    Core   - Pb    Core
   I     Core   - I     Core
   Br    Core   - Br    Core
   I     Core   - Pb    Core
   Br    Core   - Pb    Core
   C1    Core   - Pb    Core
   N1    Core   - Pb    Core
   H1    Core   - Pb    Core
   H2    Core   - Pb    Core
   C1    Core   - I     Core
   C1    Core   - Br    Core
   N1    Core   - I     Core
   N1    Core   - Br    Core
   H1    Core   - I     Core
   H1    Core   - Br    Core
   H2    Core   - I     Core
   H2    Core   - Br    Core


  Total number of molecules =     2

--------------------------------------------------------------------------------
Molecule No./:  Atoms
Periodicity  :  
--------------------------------------------------------------------------------
     1  0    : C1   c     1 N1   c     4 H1   c     5 H1   c     7 H1   c     9
             : H2   c    12 H2   c    14 H2   c    16
     2  0    : C1   c     2 N1   c     3 H1   c     6 H1   c     8 H1   c    10
             : H2   c    11 H2   c    13 H2   c    15
--------------------------------------------------------------------------------


********************************************************************************
*  Input for Configuration =   8                                               *
********************************************************************************

  Formula = C2N2H12Pb2Br6                                               

  Number of irreducible atoms/shells =      24


  Total number atoms/shells =      24

  Dimensionality = 3               :  Bulk   



  Supercell dimensions :  x =   2  y =   1  z =   1

  Cartesian lattice vectors (Angstroms) :

       12.100000    0.000000    0.000000
        0.000000    6.050000    0.000000
        0.000000    0.000000    6.050000

  Cell parameters (Angstroms/Degrees):

  a =      12.1000    alpha =  90.0000
  b =       6.0500    beta  =  90.0000
  c =       6.0500    gamma =  90.0000

  Initial cell volume =         442.890250 Angs**3

  Temperature of configuration =  0.000     K 

  Pressure of configuration =         0.000 GPa 

  Fractional coordinates of asymmetric unit :

--------------------------------------------------------------------------------
   No.  Atomic       x           y          z         Charge      Occupancy
        Label      (Frac)      (Frac)     (Frac)        (e)         (Frac)  
--------------------------------------------------------------------------------
      1 C1    c    0.462820    0.000070    0.982840     0.77100    1.000000    
      2 C1    c    0.962820 *  0.000070 *  0.982840 *   0.77100    1.000000    
      3 N1    c    0.080830 *  0.999990 *  0.047360 *  -1.10000    1.000000    
      4 N1    c    0.580830 *  0.999990 *  0.047360 *  -1.10000    1.000000    
      5 H1    c    0.456735 *  0.999970 *  0.801600 *   0.02300    1.000000    
      6 H1    c    0.956735 *  0.999970 *  0.801600 *   0.02300    1.000000    
      7 H1    c    0.423350 *  0.149190 *  0.050270 *   0.02300    1.000000    
      8 H1    c    0.923350 *  0.149190 *  0.050270 *   0.02300    1.000000    
      9 H1    c    0.423215 *  0.851220 *  0.050550 *   0.02300    1.000000    
     10 H1    c    0.923215 *  0.851220 *  0.050550 *   0.02300    1.000000    
     11 H2    c    0.121975 *  0.140070 *  0.988710 *   0.54000    1.000000    
     12 H2    c    0.621975 *  0.140070 *  0.988710 *   0.54000    1.000000    
     13 H2    c    0.121930 *  0.859880 *  0.988670 *   0.54000    1.000000    
     14 H2    c    0.621930 *  0.859880 *  0.988670 *   0.54000    1.000000    
     15 H2    c    0.092480 *  0.999990 *  0.218670 *   0.54000    1.000000    
     16 H2    c    0.592480 *  0.999990 *  0.218670 *   0.54000    1.000000    
     17 Pb    c    0.241500 *  0.499840 *  0.496510 *   2.03000    1.000000    
     18 Pb    c    0.741500 *  0.499840 *  0.496510 *   2.03000    1.000000    
     19 Br    c    0.216655 *  0.499640 *  0.988930 *  -1.13000    1.000000    
     20 Br    c    0.716655 *  0.499640 *  0.988930 *  -1.13000    1.000000    
     21 Br    c    0.219940 *  0.999640 *  0.522400 *  -1.13000    1.000000    
     22 Br    c    0.719940 *  0.999640 *  0.522400 *  -1.13000    1.000000    
     23 Br    c    0.480185 *  0.499850 *  0.460630 *  -1.13000    1.000000    
     24 Br    c    0.980185 *  0.499850 *  0.460630 *  -1.13000    1.000000    
--------------------------------------------------------------------------------



  Molecule list generated from bond lengths :

  Bonds between the following atom types will be excluded : 

   H1    Core   - H2    Core
   H1    Core   - H1    Core
   H2    Core   - H2    Core
   H1    Core   - N1    Core
   H2    Core   - C1    Core
   Pb    Core   - Pb    Core
   I     Core   - I     Core
   Br    Core   - Br    Core
   I     Core   - Pb    Core
   Br    Core   - Pb    Core
   C1    Core   - Pb    Core
   N1    Core   - Pb    Core
   H1    Core   - Pb    Core
   H2    Core   - Pb    Core
   C1    Core   - I     Core
   C1    Core   - Br    Core
   N1    Core   - I     Core
   N1    Core   - Br    Core
   H1    Core   - I     Core
   H1    Core   - Br    Core
   H2    Core   - I     Core
   H2    Core   - Br    Core
   H1    Core   - H2    Core
   H1    Core   - H1    Core
   H2    Core   - H2    Core
   H1    Core   - N1    Core
   H2    Core   - C1    Core
   Pb    Core   - Pb    Core
   I     Core   - I     Core
   Br    Core   - Br    Core
   I     Core   - Pb    Core
   Br    Core   - Pb    Core
   C1    Core   - Pb    Core
   N1    Core   - Pb    Core
   H1    Core   - Pb    Core
   H2    Core   - Pb    Core
   C1    Core   - I     Core
   C1    Core   - Br    Core
   N1    Core   - I     Core
   N1    Core   - Br    Core
   H1    Core   - I     Core
   H1    Core   - Br    Core
   H2    Core   - I     Core
   H2    Core   - Br    Core


  Total number of molecules =     2

--------------------------------------------------------------------------------
Molecule No./:  Atoms
Periodicity  :  
--------------------------------------------------------------------------------
     1  0    : C1   c     1 N1   c     4 H1   c     5 H1   c     7 H1   c     9
             : H2   c    12 H2   c    14 H2   c    16
     2  0    : C1   c     2 N1   c     3 H1   c     6 H1   c     8 H1   c    10
             : H2   c    11 H2   c    13 H2   c    15
--------------------------------------------------------------------------------


********************************************************************************
*  Input for Configuration =   9                                               *
********************************************************************************

  Formula = C2N2H12Pb2Br6                                               

  Number of irreducible atoms/shells =      24


  Total number atoms/shells =      24

  Dimensionality = 3               :  Bulk   



  Supercell dimensions :  x =   2  y =   1  z =   1

  Cartesian lattice vectors (Angstroms) :

       11.600000    0.000000    0.000000
        0.000000    5.800000    0.000000
        0.000000    0.000000    5.800000

  Cell parameters (Angstroms/Degrees):

  a =      11.6000    alpha =  90.0000
  b =       5.8000    beta  =  90.0000
  c =       5.8000    gamma =  90.0000

  Initial cell volume =         390.224000 Angs**3

  Temperature of configuration =  0.000     K 

  Pressure of configuration =         0.000 GPa 

  Fractional coordinates of asymmetric unit :

--------------------------------------------------------------------------------
   No.  Atomic       x           y          z         Charge      Occupancy
        Label      (Frac)      (Frac)     (Frac)        (e)         (Frac)  
--------------------------------------------------------------------------------
      1 C1    c    0.455265    0.001520    0.977100     0.77100    1.000000    
      2 C1    c    0.955265 *  0.001520 *  0.977100 *   0.77100    1.000000    
      3 N1    c    0.076205 *  0.000630 *  0.055830 *  -1.10000    1.000000    
      4 N1    c    0.576205 *  0.000630 *  0.055830 *  -1.10000    1.000000    
      5 H1    c    0.453675 *  0.001500 *  0.787720 *   0.02300    1.000000    
      6 H1    c    0.953675 *  0.001500 *  0.787720 *   0.02300    1.000000    
      7 H1    c    0.412575 *  0.157390 *  0.042940 *   0.02300    1.000000    
      8 H1    c    0.912575 *  0.157390 *  0.042940 *   0.02300    1.000000    
      9 H1    c    0.412005 *  0.846300 *  0.042850 *   0.02300    1.000000    
     10 H1    c    0.912005 *  0.846300 *  0.042850 *   0.02300    1.000000    
     11 H2    c    0.120800 *  0.146230 *  0.998210 *   0.54000    1.000000    
     12 H2    c    0.620800 *  0.146230 *  0.998210 *   0.54000    1.000000    
     13 H2    c    0.120475 *  0.854930 *  0.997650 *   0.54000    1.000000    
     14 H2    c    0.620475 *  0.854930 *  0.997650 *   0.54000    1.000000    
     15 H2    c    0.084345 *  0.000230 *  0.234890 *   0.54000    1.000000    
     16 H2    c    0.584345 *  0.000230 *  0.234890 *   0.54000    1.000000    
     17 Pb    c    0.253875 *  0.496230 *  0.491940 *   2.03000    1.000000    
     18 Pb    c    0.753875 *  0.496230 *  0.491940 *   2.03000    1.000000    
     19 Br    c    0.225580 *  0.500070 *  0.988390 *  -1.13000    1.000000    
     20 Br    c    0.725580 *  0.500070 *  0.988390 *  -1.13000    1.000000    
     21 Br    c    0.227060 *  0.995760 *  0.538650 *  -1.13000    1.000000    
     22 Br    c    0.727060 *  0.995760 *  0.538650 *  -1.13000    1.000000    
     23 Br    c    0.499740 *  0.498560 *  0.440960 *  -1.13000    1.000000    
     24 Br    c    0.999740 *  0.498560 *  0.440960 *  -1.13000    1.000000    
--------------------------------------------------------------------------------



  Molecule list generated from bond lengths :

  Bonds between the following atom types will be excluded : 

   H1    Core   - H2    Core
   H1    Core   - H1    Core
   H2    Core   - H2    Core
   H1    Core   - N1    Core
   H2    Core   - C1    Core
   Pb    Core   - Pb    Core
   I     Core   - I     Core
   Br    Core   - Br    Core
   I     Core   - Pb    Core
   Br    Core   - Pb    Core
   C1    Core   - Pb    Core
   N1    Core   - Pb    Core
   H1    Core   - Pb    Core
   H2    Core   - Pb    Core
   C1    Core   - I     Core
   C1    Core   - Br    Core
   N1    Core   - I     Core
   N1    Core   - Br    Core
   H1    Core   - I     Core
   H1    Core   - Br    Core
   H2    Core   - I     Core
   H2    Core   - Br    Core
   H1    Core   - H2    Core
   H1    Core   - H1    Core
   H2    Core   - H2    Core
   H1    Core   - N1    Core
   H2    Core   - C1    Core
   Pb    Core   - Pb    Core
   I     Core   - I     Core
   Br    Core   - Br    Core
   I     Core   - Pb    Core
   Br    Core   - Pb    Core
   C1    Core   - Pb    Core
   N1    Core   - Pb    Core
   H1    Core   - Pb    Core
   H2    Core   - Pb    Core
   C1    Core   - I     Core
   C1    Core   - Br    Core
   N1    Core   - I     Core
   N1    Core   - Br    Core
   H1    Core   - I     Core
   H1    Core   - Br    Core
   H2    Core   - I     Core
   H2    Core   - Br    Core


  Total number of molecules =     2

--------------------------------------------------------------------------------
Molecule No./:  Atoms
Periodicity  :  
--------------------------------------------------------------------------------
     1  0    : C1   c     1 N1   c     4 H1   c     5 H1   c     7 H1   c     9
             : H2   c    12 H2   c    14 H2   c    16
     2  0    : C1   c     2 N1   c     3 H1   c     6 H1   c     8 H1   c    10
             : H2   c    11 H2   c    13 H2   c    15
--------------------------------------------------------------------------------


********************************************************************************
*  Input for Configuration =  10                                               *
********************************************************************************

  Formula = C2N2H12Pb2Br6                                               

  Number of irreducible atoms/shells =      24


  Total number atoms/shells =      24

  Dimensionality = 3               :  Bulk   



  Supercell dimensions :  x =   2  y =   1  z =   1

  Cartesian lattice vectors (Angstroms) :

       12.200000    0.000000    0.000000
        0.000000    6.100000    0.000000
        0.000000    0.000000    6.100000

  Cell parameters (Angstroms/Degrees):

  a =      12.2000    alpha =  90.0000
  b =       6.1000    beta  =  90.0000
  c =       6.1000    gamma =  90.0000

  Initial cell volume =         453.962000 Angs**3

  Temperature of configuration =  0.000     K 

  Pressure of configuration =         0.000 GPa 

  Fractional coordinates of asymmetric unit :

--------------------------------------------------------------------------------
   No.  Atomic       x           y          z         Charge      Occupancy
        Label      (Frac)      (Frac)     (Frac)        (e)         (Frac)  
--------------------------------------------------------------------------------
      1 C1    c    0.464765    0.999960    0.986530     0.77100    1.000000    
      2 C1    c    0.964765 *  0.999960 *  0.986530 *   0.77100    1.000000    
      3 N1    c    0.082705 *  0.999850 *  0.044150 *  -1.10000    1.000000    
      4 N1    c    0.582705 *  0.999850 *  0.044150 *  -1.10000    1.000000    
      5 H1    c    0.456445 *  0.999800 *  0.807070 *   0.02300    1.000000    
      6 H1    c    0.956445 *  0.999800 *  0.807070 *   0.02300    1.000000    
      7 H1    c    0.426515 *  0.147840 *  0.055420 *   0.02300    1.000000    
      8 H1    c    0.926515 *  0.147840 *  0.055420 *   0.02300    1.000000    
      9 H1    c    0.426430 *  0.852290 *  0.055690 *   0.02300    1.000000    
     10 H1    c    0.926430 *  0.852290 *  0.055690 *   0.02300    1.000000    
     11 H2    c    0.122565 *  0.138670 *  0.983460 *   0.54000    1.000000    
     12 H2    c    0.622565 *  0.138670 *  0.983460 *   0.54000    1.000000    
     13 H2    c    0.122495 *  0.860880 *  0.983630 *   0.54000    1.000000    
     14 H2    c    0.622495 *  0.860880 *  0.983630 *   0.54000    1.000000    
     15 H2    c    0.096845 *  0.999940 *  0.213570 *   0.54000    1.000000    
     16 H2    c    0.596845 *  0.999940 *  0.213570 *   0.54000    1.000000    
     17 Pb    c    0.239595 *  0.500030 *  0.496440 *   2.03000    1.000000    
     18 Pb    c    0.739595 *  0.500030 *  0.496440 *   2.03000    1.000000    
     19 Br    c    0.212000 *  0.499820 *  0.987230 *  -1.13000    1.000000    
     20 Br    c    0.712000 *  0.499820 *  0.987230 *  -1.13000    1.000000    
     21 Br    c    0.218750 *  0.999970 *  0.518790 *  -1.13000    1.000000    
     22 Br    c    0.718750 *  0.999970 *  0.518790 *  -1.13000    1.000000    
     23 Br    c    0.472495 *  0.500290 *  0.465150 *  -1.13000    1.000000    
     24 Br    c    0.972495 *  0.500290 *  0.465150 *  -1.13000    1.000000    
--------------------------------------------------------------------------------



  Molecule list generated from bond lengths :

  Bonds between the following atom types will be excluded : 

   H1    Core   - H2    Core
   H1    Core   - H1    Core
   H2    Core   - H2    Core
   H1    Core   - N1    Core
   H2    Core   - C1    Core
   Pb    Core   - Pb    Core
   I     Core   - I     Core
   Br    Core   - Br    Core
   I     Core   - Pb    Core
   Br    Core   - Pb    Core
   C1    Core   - Pb    Core
   N1    Core   - Pb    Core
   H1    Core   - Pb    Core
   H2    Core   - Pb    Core
   C1    Core   - I     Core
   C1    Core   - Br    Core
   N1    Core   - I     Core
   N1    Core   - Br    Core
   H1    Core   - I     Core
   H1    Core   - Br    Core
   H2    Core   - I     Core
   H2    Core   - Br    Core
   H1    Core   - H2    Core
   H1    Core   - H1    Core
   H2    Core   - H2    Core
   H1    Core   - N1    Core
   H2    Core   - C1    Core
   Pb    Core   - Pb    Core
   I     Core   - I     Core
   Br    Core   - Br    Core
   I     Core   - Pb    Core
   Br    Core   - Pb    Core
   C1    Core   - Pb    Core
   N1    Core   - Pb    Core
   H1    Core   - Pb    Core
   H2    Core   - Pb    Core
   C1    Core   - I     Core
   C1    Core   - Br    Core
   N1    Core   - I     Core
   N1    Core   - Br    Core
   H1    Core   - I     Core
   H1    Core   - Br    Core
   H2    Core   - I     Core
   H2    Core   - Br    Core


  Total number of molecules =     2

--------------------------------------------------------------------------------
Molecule No./:  Atoms
Periodicity  :  
--------------------------------------------------------------------------------
     1  0    : C1   c     1 N1   c     4 H1   c     5 H1   c     7 H1   c     9
             : H2   c    12 H2   c    14 H2   c    16
     2  0    : C1   c     2 N1   c     3 H1   c     6 H1   c     8 H1   c    10
             : H2   c    11 H2   c    13 H2   c    15
--------------------------------------------------------------------------------


********************************************************************************
*  Input for Configuration =  11                                               *
********************************************************************************

  Formula = C2N2H12Pb2Br6                                               

  Number of irreducible atoms/shells =      24


  Total number atoms/shells =      24

  Dimensionality = 3               :  Bulk   



  Supercell dimensions :  x =   2  y =   1  z =   1

  Cartesian lattice vectors (Angstroms) :

       12.400000    0.000000    0.000000
        0.000000    6.200000    0.000000
        0.000000    0.000000    6.200000

  Cell parameters (Angstroms/Degrees):

  a =      12.4000    alpha =  90.0000
  b =       6.2000    beta  =  90.0000
  c =       6.2000    gamma =  90.0000

  Initial cell volume =         476.656000 Angs**3

  Temperature of configuration =  0.000     K 

  Pressure of configuration =         0.000 GPa 

  Fractional coordinates of asymmetric unit :

--------------------------------------------------------------------------------
   No.  Atomic       x           y          z         Charge      Occupancy
        Label      (Frac)      (Frac)     (Frac)        (e)         (Frac)  
--------------------------------------------------------------------------------
      1 C1    c    0.468370    0.999910    0.991090     0.77100    1.000000    
      2 C1    c    0.968370 *  0.999910 *  0.991090 *   0.77100    1.000000    
      3 N1    c    0.085100 *  0.999950 *  0.042190 *  -1.10000    1.000000    
      4 N1    c    0.585100 *  0.999950 *  0.042190 *  -1.10000    1.000000    
      5 H1    c    0.458395 *  0.999760 *  0.814970 *   0.02300    1.000000    
      6 H1    c    0.958395 *  0.999760 *  0.814970 *   0.02300    1.000000    
      7 H1    c    0.431665 *  0.145530 *  0.060610 *   0.02300    1.000000    
      8 H1    c    0.931665 *  0.145530 *  0.060610 *   0.02300    1.000000    
      9 H1    c    0.431630 *  0.854420 *  0.060910 *   0.02300    1.000000    
     10 H1    c    0.931630 *  0.854420 *  0.060910 *   0.02300    1.000000    
     11 H2    c    0.123460 *  0.136480 *  0.980190 *   0.54000    1.000000    
     12 H2    c    0.623460 *  0.136480 *  0.980190 *   0.54000    1.000000    
     13 H2    c    0.123485 *  0.863360 *  0.980360 *   0.54000    1.000000    
     14 H2    c    0.623485 *  0.863360 *  0.980360 *   0.54000    1.000000    
     15 H2    c    0.100730 *  0.000040 *  0.208670 *   0.54000    1.000000    
     16 H2    c    0.600730 *  0.000040 *  0.208670 *   0.54000    1.000000    
     17 Pb    c    0.213825 *  0.500240 *  0.503460 *   2.03000    1.000000    
     18 Pb    c    0.713825 *  0.500240 *  0.503460 *   2.03000    1.000000    
     19 Br    c    0.207900 *  0.500240 *  0.973060 *  -1.13000    1.000000    
     20 Br    c    0.707900 *  0.500240 *  0.973060 *  -1.13000    1.000000    
     21 Br    c    0.208215 *  0.999380 *  0.519970 *  -1.13000    1.000000    
     22 Br    c    0.708215 *  0.999380 *  0.519970 *  -1.13000    1.000000    
     23 Br    c    0.488835 *  0.500040 *  0.461660 *  -1.13000    1.000000    
     24 Br    c    0.988835 *  0.500040 *  0.461660 *  -1.13000    1.000000    
--------------------------------------------------------------------------------



  Molecule list generated from bond lengths :

  Bonds between the following atom types will be excluded : 

   H1    Core   - H2    Core
   H1    Core   - H1    Core
   H2    Core   - H2    Core
   H1    Core   - N1    Core
   H2    Core   - C1    Core
   Pb    Core   - Pb    Core
   I     Core   - I     Core
   Br    Core   - Br    Core
   I     Core   - Pb    Core
   Br    Core   - Pb    Core
   C1    Core   - Pb    Core
   N1    Core   - Pb    Core
   H1    Core   - Pb    Core
   H2    Core   - Pb    Core
   C1    Core   - I     Core
   C1    Core   - Br    Core
   N1    Core   - I     Core
   N1    Core   - Br    Core
   H1    Core   - I     Core
   H1    Core   - Br    Core
   H2    Core   - I     Core
   H2    Core   - Br    Core
   H1    Core   - H2    Core
   H1    Core   - H1    Core
   H2    Core   - H2    Core
   H1    Core   - N1    Core
   H2    Core   - C1    Core
   Pb    Core   - Pb    Core
   I     Core   - I     Core
   Br    Core   - Br    Core
   I     Core   - Pb    Core
   Br    Core   - Pb    Core
   C1    Core   - Pb    Core
   N1    Core   - Pb    Core
   H1    Core   - Pb    Core
   H2    Core   - Pb    Core
   C1    Core   - I     Core
   C1    Core   - Br    Core
   N1    Core   - I     Core
   N1    Core   - Br    Core
   H1    Core   - I     Core
   H1    Core   - Br    Core
   H2    Core   - I     Core
   H2    Core   - Br    Core


  Total number of molecules =     2

--------------------------------------------------------------------------------
Molecule No./:  Atoms
Periodicity  :  
--------------------------------------------------------------------------------
     1  0    : C1   c     1 N1   c     4 H1   c     5 H1   c     7 H1   c     9
             : H2   c    12 H2   c    14 H2   c    16
     2  0    : C1   c     2 N1   c     3 H1   c     6 H1   c     8 H1   c    10
             : H2   c    11 H2   c    13 H2   c    15
--------------------------------------------------------------------------------


********************************************************************************
*  Input for Configuration =  12                                               *
********************************************************************************

  Formula = C2N2H12Pb2Br6                                               

  Number of irreducible atoms/shells =      24


  Total number atoms/shells =      24

  Dimensionality = 3               :  Bulk   



  Supercell dimensions :  x =   2  y =   1  z =   1

  Cartesian lattice vectors (Angstroms) :

       11.400000    0.000000    0.000000
        0.000000    5.700000    0.000000
        0.000000    0.000000    5.700000

  Cell parameters (Angstroms/Degrees):

  a =      11.4000    alpha =  90.0000
  b =       5.7000    beta  =  90.0000
  c =       5.7000    gamma =  90.0000

  Initial cell volume =         370.386000 Angs**3

  Temperature of configuration =  0.000     K 

  Pressure of configuration =         0.000 GPa 

  Fractional coordinates of asymmetric unit :

--------------------------------------------------------------------------------
   No.  Atomic       x           y          z         Charge      Occupancy
        Label      (Frac)      (Frac)     (Frac)        (e)         (Frac)  
--------------------------------------------------------------------------------
      1 C1    c    0.451600    0.000050    0.976300     0.77100    1.000000    
      2 C1    c    0.951600 *  0.000050 *  0.976300 *   0.77100    1.000000    
      3 N1    c    0.074400 *  0.999720 *  0.056600 *  -1.10000    1.000000    
      4 N1    c    0.574400 *  0.999720 *  0.056600 *  -1.10000    1.000000    
      5 H1    c    0.450010 *  0.999980 *  0.783570 *   0.02300    1.000000    
      6 H1    c    0.950010 *  0.999980 *  0.783570 *   0.02300    1.000000    
      7 H1    c    0.407790 *  0.158530 *  0.042660 *   0.02300    1.000000    
      8 H1    c    0.907790 *  0.158530 *  0.042660 *   0.02300    1.000000    
      9 H1    c    0.407560 *  0.841880 *  0.042800 *   0.02300    1.000000    
     10 H1    c    0.907560 *  0.841880 *  0.042800 *   0.02300    1.000000    
     11 H2    c    0.119810 *  0.147570 *  0.997330 *   0.54000    1.000000    
     12 H2    c    0.619810 *  0.147570 *  0.997330 *   0.54000    1.000000    
     13 H2    c    0.119605 *  0.851540 *  0.997520 *   0.54000    1.000000    
     14 H2    c    0.619605 *  0.851540 *  0.997520 *   0.54000    1.000000    
     15 H2    c    0.082750 *  0.999830 *  0.238860 *   0.54000    1.000000    
     16 H2    c    0.582750 *  0.999830 *  0.238860 *   0.54000    1.000000    
     17 Pb    c    0.263455 *  0.500210 *  0.491710 *   2.03000    1.000000    
     18 Pb    c    0.763455 *  0.500210 *  0.491710 *   2.03000    1.000000    
     19 Br    c    0.228355 *  0.499940 *  0.988250 *  -1.13000    1.000000    
     20 Br    c    0.728355 *  0.499940 *  0.988250 *  -1.13000    1.000000    
     21 Br    c    0.226830 *  0.000190 *  0.542870 *  -1.13000    1.000000    
     22 Br    c    0.726830 *  0.000190 *  0.542870 *  -1.13000    1.000000    
     23 Br    c    0.009440 *  0.499900 *  0.438650 *  -1.13000    1.000000    
     24 Br    c    0.509440 *  0.499900 *  0.438650 *  -1.13000    1.000000    
--------------------------------------------------------------------------------



  Molecule list generated from bond lengths :

  Bonds between the following atom types will be excluded : 

   H1    Core   - H2    Core
   H1    Core   - H1    Core
   H2    Core   - H2    Core
   H1    Core   - N1    Core
   H2    Core   - C1    Core
   Pb    Core   - Pb    Core
   I     Core   - I     Core
   Br    Core   - Br    Core
   I     Core   - Pb    Core
   Br    Core   - Pb    Core
   C1    Core   - Pb    Core
   N1    Core   - Pb    Core
   H1    Core   - Pb    Core
   H2    Core   - Pb    Core
   C1    Core   - I     Core
   C1    Core   - Br    Core
   N1    Core   - I     Core
   N1    Core   - Br    Core
   H1    Core   - I     Core
   H1    Core   - Br    Core
   H2    Core   - I     Core
   H2    Core   - Br    Core
   H1    Core   - H2    Core
   H1    Core   - H1    Core
   H2    Core   - H2    Core
   H1    Core   - N1    Core
   H2    Core   - C1    Core
   Pb    Core   - Pb    Core
   I     Core   - I     Core
   Br    Core   - Br    Core
   I     Core   - Pb    Core
   Br    Core   - Pb    Core
   C1    Core   - Pb    Core
   N1    Core   - Pb    Core
   H1    Core   - Pb    Core
   H2    Core   - Pb    Core
   C1    Core   - I     Core
   C1    Core   - Br    Core
   N1    Core   - I     Core
   N1    Core   - Br    Core
   H1    Core   - I     Core
   H1    Core   - Br    Core
   H2    Core   - I     Core
   H2    Core   - Br    Core


  Total number of molecules =     2

--------------------------------------------------------------------------------
Molecule No./:  Atoms
Periodicity  :  
--------------------------------------------------------------------------------
     1  0    : C1   c     1 N1   c     4 H1   c     5 H1   c     7 H1   c     9
             : H2   c    12 H2   c    14 H2   c    16
     2  0    : C1   c     2 N1   c     3 H1   c     6 H1   c     8 H1   c    10
             : H2   c    11 H2   c    13 H2   c    15
--------------------------------------------------------------------------------


********************************************************************************
*  Input for Configuration =  13                                               *
********************************************************************************

  Formula = C2N2H12Pb2Br6                                               

  Number of irreducible atoms/shells =      24


  Total number atoms/shells =      24

  Dimensionality = 3               :  Bulk   



  Supercell dimensions :  x =   2  y =   1  z =   1

  Cartesian lattice vectors (Angstroms) :

       12.600000    0.000000    0.000000
        0.000000    6.300000    0.000000
        0.000000    0.000000    6.300000

  Cell parameters (Angstroms/Degrees):

  a =      12.6000    alpha =  90.0000
  b =       6.3000    beta  =  90.0000
  c =       6.3000    gamma =  90.0000

  Initial cell volume =         500.094000 Angs**3

  Temperature of configuration =  0.000     K 

  Pressure of configuration =         0.000 GPa 

  Fractional coordinates of asymmetric unit :

--------------------------------------------------------------------------------
   No.  Atomic       x           y          z         Charge      Occupancy
        Label      (Frac)      (Frac)     (Frac)        (e)         (Frac)  
--------------------------------------------------------------------------------
      1 C1    c    0.474300    0.999760    0.996340     0.77100    1.000000    
      2 C1    c    0.974300 *  0.999760 *  0.996340 *   0.77100    1.000000    
      3 N1    c    0.089730 *  0.000050 *  0.040270 *  -1.10000    1.000000    
      4 N1    c    0.589730 *  0.000050 *  0.040270 *  -1.10000    1.000000    
      5 H1    c    0.461780 *  0.999570 *  0.823680 *   0.02300    1.000000    
      6 H1    c    0.961780 *  0.999570 *  0.823680 *   0.02300    1.000000    
      7 H1    c    0.439135 *  0.142770 *  0.067380 *   0.02300    1.000000    
      8 H1    c    0.939135 *  0.142770 *  0.067380 *   0.02300    1.000000    
      9 H1    c    0.439315 *  0.856660 *  0.067600 *   0.02300    1.000000    
     10 H1    c    0.939315 *  0.856660 *  0.067600 *   0.02300    1.000000    
     11 H2    c    0.126040 *  0.135670 *  0.978620 *   0.54000    1.000000    
     12 H2    c    0.626040 *  0.135670 *  0.978620 *   0.54000    1.000000    
     13 H2    c    0.126350 *  0.866070 *  0.975770 *   0.54000    1.000000    
     14 H2    c    0.626350 *  0.866070 *  0.975770 *   0.54000    1.000000    
     15 H2    c    0.106695 *  0.997920 *  0.203650 *   0.54000    1.000000    
     16 H2    c    0.606695 *  0.997920 *  0.203650 *   0.54000    1.000000    
     17 Pb    c    0.201385 *  0.519440 *  0.505790 *   2.03000    1.000000    
     18 Pb    c    0.701385 *  0.519440 *  0.505790 *   2.03000    1.000000    
     19 Br    c    0.195425 *  0.500520 *  0.965350 *  -1.13000    1.000000    
     20 Br    c    0.695425 *  0.500520 *  0.965350 *  -1.13000    1.000000    
     21 Br    c    0.197110 *  0.981130 *  0.522400 *  -1.13000    1.000000    
     22 Br    c    0.697110 *  0.981130 *  0.522400 *  -1.13000    1.000000    
     23 Br    c    0.484355 *  0.499770 *  0.450280 *  -1.13000    1.000000    
     24 Br    c    0.984355 *  0.499770 *  0.450280 *  -1.13000    1.000000    
--------------------------------------------------------------------------------



  Molecule list generated from bond lengths :

  Bonds between the following atom types will be excluded : 

   H1    Core   - H2    Core
   H1    Core   - H1    Core
   H2    Core   - H2    Core
   H1    Core   - N1    Core
   H2    Core   - C1    Core
   Pb    Core   - Pb    Core
   I     Core   - I     Core
   Br    Core   - Br    Core
   I     Core   - Pb    Core
   Br    Core   - Pb    Core
   C1    Core   - Pb    Core
   N1    Core   - Pb    Core
   H1    Core   - Pb    Core
   H2    Core   - Pb    Core
   C1    Core   - I     Core
   C1    Core   - Br    Core
   N1    Core   - I     Core
   N1    Core   - Br    Core
   H1    Core   - I     Core
   H1    Core   - Br    Core
   H2    Core   - I     Core
   H2    Core   - Br    Core
   H1    Core   - H2    Core
   H1    Core   - H1    Core
   H2    Core   - H2    Core
   H1    Core   - N1    Core
   H2    Core   - C1    Core
   Pb    Core   - Pb    Core
   I     Core   - I     Core
   Br    Core   - Br    Core
   I     Core   - Pb    Core
   Br    Core   - Pb    Core
   C1    Core   - Pb    Core
   N1    Core   - Pb    Core
   H1    Core   - Pb    Core
   H2    Core   - Pb    Core
   C1    Core   - I     Core
   C1    Core   - Br    Core
   N1    Core   - I     Core
   N1    Core   - Br    Core
   H1    Core   - I     Core
   H1    Core   - Br    Core
   H2    Core   - I     Core
   H2    Core   - Br    Core


  Total number of molecules =     2

--------------------------------------------------------------------------------
Molecule No./:  Atoms
Periodicity  :  
--------------------------------------------------------------------------------
     1  0    : C1   c     1 N1   c     4 H1   c     5 H1   c     7 H1   c     9
             : H2   c    12 H2   c    14 H2   c    16
     2  0    : C1   c     2 N1   c     3 H1   c     6 H1   c     8 H1   c    10
             : H2   c    11 H2   c    13 H2   c    15
--------------------------------------------------------------------------------


********************************************************************************
*  Input for Configuration =  14                                               *
********************************************************************************

  Formula = C2N2H12Pb2Br6                                               

  Number of irreducible atoms/shells =      24


  Total number atoms/shells =      24

  Dimensionality = 3               :  Bulk   



  Supercell dimensions :  x =   2  y =   1  z =   1

  Cartesian lattice vectors (Angstroms) :

       12.800000    0.000000    0.000000
        0.000000    6.400000    0.000000
        0.000000    0.000000    6.400000

  Cell parameters (Angstroms/Degrees):

  a =      12.8000    alpha =  90.0000
  b =       6.4000    beta  =  90.0000
  c =       6.4000    gamma =  90.0000

  Initial cell volume =         524.288000 Angs**3

  Temperature of configuration =  0.000     K 

  Pressure of configuration =         0.000 GPa 

  Fractional coordinates of asymmetric unit :

--------------------------------------------------------------------------------
   No.  Atomic       x           y          z         Charge      Occupancy
        Label      (Frac)      (Frac)     (Frac)        (e)         (Frac)  
--------------------------------------------------------------------------------
      1 C1    c    0.478705    0.000460    0.000380     0.77100    1.000000    
      2 C1    c    0.978705 *  0.000460 *  0.000380 *   0.77100    1.000000    
      3 N1    c    0.092745 *  0.002300 *  0.039010 *  -1.10000    1.000000    
      4 N1    c    0.592745 *  0.002300 *  0.039010 *  -1.10000    1.000000    
      5 H1    c    0.464945 *  0.000980 *  0.830970 *   0.02300    1.000000    
      6 H1    c    0.964945 *  0.000980 *  0.830970 *   0.02300    1.000000    
      7 H1    c    0.444175 *  0.140400 *  0.072060 *   0.02300    1.000000    
      8 H1    c    0.944175 *  0.140400 *  0.072060 *   0.02300    1.000000    
      9 H1    c    0.445350 *  0.858760 *  0.070710 *   0.02300    1.000000    
     10 H1    c    0.945350 *  0.858760 *  0.070710 *   0.02300    1.000000    
     11 H2    c    0.126930 *  0.138080 *  0.979680 *   0.54000    1.000000    
     12 H2    c    0.626930 *  0.138080 *  0.979680 *   0.54000    1.000000    
     13 H2    c    0.128470 *  0.872230 *  0.971350 *   0.54000    1.000000    
     14 H2    c    0.628470 *  0.872230 *  0.971350 *   0.54000    1.000000    
     15 H2    c    0.110655 *  0.996870 *  0.199410 *   0.54000    1.000000    
     16 H2    c    0.610655 *  0.996870 *  0.199410 *   0.54000    1.000000    
     17 Pb    c    0.192655 *  0.521510 *  0.506430 *   2.03000    1.000000    
     18 Pb    c    0.692655 *  0.521510 *  0.506430 *   2.03000    1.000000    
     19 Br    c    0.185860 *  0.502790 *  0.954160 *  -1.13000    1.000000    
     20 Br    c    0.685860 *  0.502790 *  0.954160 *  -1.13000    1.000000    
     21 Br    c    0.190500 *  0.971090 *  0.519610 *  -1.13000    1.000000    
     22 Br    c    0.690500 *  0.971090 *  0.519610 *  -1.13000    1.000000    
     23 Br    c    0.480625 *  0.493890 *  0.453360 *  -1.13000    1.000000    
     24 Br    c    0.980625 *  0.493890 *  0.453360 *  -1.13000    1.000000    
--------------------------------------------------------------------------------



  Molecule list generated from bond lengths :

  Bonds between the following atom types will be excluded : 

   H1    Core   - H2    Core
   H1    Core   - H1    Core
   H2    Core   - H2    Core
   H1    Core   - N1    Core
   H2    Core   - C1    Core
   Pb    Core   - Pb    Core
   I     Core   - I     Core
   Br    Core   - Br    Core
   I     Core   - Pb    Core
   Br    Core   - Pb    Core
   C1    Core   - Pb    Core
   N1    Core   - Pb    Core
   H1    Core   - Pb    Core
   H2    Core   - Pb    Core
   C1    Core   - I     Core
   C1    Core   - Br    Core
   N1    Core   - I     Core
   N1    Core   - Br    Core
   H1    Core   - I     Core
   H1    Core   - Br    Core
   H2    Core   - I     Core
   H2    Core   - Br    Core
   H1    Core   - H2    Core
   H1    Core   - H1    Core
   H2    Core   - H2    Core
   H1    Core   - N1    Core
   H2    Core   - C1    Core
   Pb    Core   - Pb    Core
   I     Core   - I     Core
   Br    Core   - Br    Core
   I     Core   - Pb    Core
   Br    Core   - Pb    Core
   C1    Core   - Pb    Core
   N1    Core   - Pb    Core
   H1    Core   - Pb    Core
   H2    Core   - Pb    Core
   C1    Core   - I     Core
   C1    Core   - Br    Core
   N1    Core   - I     Core
   N1    Core   - Br    Core
   H1    Core   - I     Core
   H1    Core   - Br    Core
   H2    Core   - I     Core
   H2    Core   - Br    Core


  Total number of molecules =     2

--------------------------------------------------------------------------------
Molecule No./:  Atoms
Periodicity  :  
--------------------------------------------------------------------------------
     1  0    : C1   c     1 N1   c     4 H1   c     5 H1   c     7 H1   c     9
             : H2   c    12 H2   c    14 H2   c    16
     2  0    : C1   c     2 N1   c     3 H1   c     6 H1   c     8 H1   c    10
             : H2   c    11 H2   c    13 H2   c    15
--------------------------------------------------------------------------------


********************************************************************************
*  Input for Configuration =  15                                               *
********************************************************************************

  Formula = C2N2H12Pb2Br6                                               

  Number of irreducible atoms/shells =      24


  Total number atoms/shells =      24

  Dimensionality = 3               :  Bulk   



  Supercell dimensions :  x =   2  y =   1  z =   1

  Cartesian lattice vectors (Angstroms) :

       13.000000    0.000000    0.000000
        0.000000    6.500000    0.000000
        0.000000    0.000000    6.500000

  Cell parameters (Angstroms/Degrees):

  a =      13.0000    alpha =  90.0000
  b =       6.5000    beta  =  90.0000
  c =       6.5000    gamma =  90.0000

  Initial cell volume =         549.250000 Angs**3

  Temperature of configuration =  0.000     K 

  Pressure of configuration =         0.000 GPa 

  Fractional coordinates of asymmetric unit :

--------------------------------------------------------------------------------
   No.  Atomic       x           y          z         Charge      Occupancy
        Label      (Frac)      (Frac)     (Frac)        (e)         (Frac)  
--------------------------------------------------------------------------------
      1 C1    c    0.483135    0.998700    0.010910     0.77100    1.000000    
      2 C1    c    0.983135 *  0.998700 *  0.010910 *   0.77100    1.000000    
      3 N1    c    0.096280 *  0.001050 *  0.038070 *  -1.10000    1.000000    
      4 N1    c    0.596280 *  0.001050 *  0.038070 *  -1.10000    1.000000    
      5 H1    c    0.465635 *  0.998710 *  0.845550 *   0.02300    1.000000    
      6 H1    c    0.965635 *  0.998710 *  0.845550 *   0.02300    1.000000    
      7 H1    c    0.450890 *  0.136460 *  0.084790 *   0.02300    1.000000    
      8 H1    c    0.950890 *  0.136460 *  0.084790 *   0.02300    1.000000    
      9 H1    c    0.452555 *  0.858880 *  0.083940 *   0.02300    1.000000    
     10 H1    c    0.952555 *  0.858880 *  0.083940 *   0.02300    1.000000    
     11 H2    c    0.128235 *  0.135260 *  0.977070 *   0.54000    1.000000    
     12 H2    c    0.628235 *  0.135260 *  0.977070 *   0.54000    1.000000    
     13 H2    c    0.129715 *  0.873210 *  0.967490 *   0.54000    1.000000    
     14 H2    c    0.629715 *  0.873210 *  0.967490 *   0.54000    1.000000    
     15 H2    c    0.116880 *  0.994580 *  0.194890 *   0.54000    1.000000    
     16 H2    c    0.616880 *  0.994580 *  0.194890 *   0.54000    1.000000    
     17 Pb    c    0.182905 *  0.526610 *  0.503050 *   2.03000    1.000000    
     18 Pb    c    0.682905 *  0.526610 *  0.503050 *   2.03000    1.000000    
     19 Br    c    0.174440 *  0.502800 *  0.939380 *  -1.13000    1.000000    
     20 Br    c    0.674440 *  0.502800 *  0.939380 *  -1.13000    1.000000    
     21 Br    c    0.184645 *  0.965780 *  0.516490 *  -1.13000    1.000000    
     22 Br    c    0.684645 *  0.965780 *  0.516490 *  -1.13000    1.000000    
     23 Br    c    0.476295 *  0.507290 *  0.435500 *  -1.13000    1.000000    
     24 Br    c    0.976295 *  0.507290 *  0.435500 *  -1.13000    1.000000    
--------------------------------------------------------------------------------



  Molecule list generated from bond lengths :

  Bonds between the following atom types will be excluded : 

   H1    Core   - H2    Core
   H1    Core   - H1    Core
   H2    Core   - H2    Core
   H1    Core   - N1    Core
   H2    Core   - C1    Core
   Pb    Core   - Pb    Core
   I     Core   - I     Core
   Br    Core   - Br    Core
   I     Core   - Pb    Core
   Br    Core   - Pb    Core
   C1    Core   - Pb    Core
   N1    Core   - Pb    Core
   H1    Core   - Pb    Core
   H2    Core   - Pb    Core
   C1    Core   - I     Core
   C1    Core   - Br    Core
   N1    Core   - I     Core
   N1    Core   - Br    Core
   H1    Core   - I     Core
   H1    Core   - Br    Core
   H2    Core   - I     Core
   H2    Core   - Br    Core
[...]
--------------------------------------------------------------------------------

********************************************************************************
*  Output for configuration   2                                                *
********************************************************************************


  Components of energy : 

--------------------------------------------------------------------------------
  Interatomic potentials     =          66.80717107 eV
  Three-body potentials      =           0.07291148 eV
  Four-body potentials       =           0.00004436 eV
  Improper torsions          =           0.00000000 eV
  Out of plane potentials    =           0.00000000 eV
  Monopole - monopole (real) =         -20.19459828 eV
  Monopole - monopole (recip)=         -53.28569843 eV
  Monopole - monopole (total)=         -73.48029671 eV
--------------------------------------------------------------------------------
  Total lattice energy       =          -6.60016980 eV
--------------------------------------------------------------------------------
  Total lattice energy       =            -636.8155 kJ/(mole unit cells)
--------------------------------------------------------------------------------

********************************************************************************
*  Output for configuration   3                                                *
********************************************************************************


  Components of energy : 

--------------------------------------------------------------------------------
  Interatomic potentials     =          64.43982066 eV
  Three-body potentials      =           0.06905456 eV
  Four-body potentials       =           0.00004418 eV
  Improper torsions          =           0.00000000 eV
  Out of plane potentials    =           0.00000000 eV
  Monopole - monopole (real) =         -20.14203863 eV
  Monopole - monopole (recip)=         -53.01934865 eV
  Monopole - monopole (total)=         -73.16138728 eV
--------------------------------------------------------------------------------
  Total lattice energy       =          -8.65246789 eV
--------------------------------------------------------------------------------
  Total lattice energy       =            -834.8309 kJ/(mole unit cells)
--------------------------------------------------------------------------------

********************************************************************************
*  Output for configuration   4                                                *
********************************************************************************


  Components of energy : 

--------------------------------------------------------------------------------
  Interatomic potentials     =          68.44391713 eV
  Three-body potentials      =           0.07280732 eV
  Four-body potentials       =           0.00004711 eV
  Improper torsions          =           0.00000000 eV
  Out of plane potentials    =           0.00000000 eV
  Monopole - monopole (real) =         -20.27197739 eV
  Monopole - monopole (recip)=         -53.46643760 eV
  Monopole - monopole (total)=         -73.73841499 eV
--------------------------------------------------------------------------------
  Total lattice energy       =          -5.22164344 eV
--------------------------------------------------------------------------------
  Total lattice energy       =            -503.8088 kJ/(mole unit cells)
--------------------------------------------------------------------------------

********************************************************************************
*  Output for configuration   5                                                *
********************************************************************************


  Components of energy : 

--------------------------------------------------------------------------------
  Interatomic potentials     =          70.14425963 eV
  Three-body potentials      =           0.07552369 eV
  Four-body potentials       =           0.00004475 eV
  Improper torsions          =           0.00000000 eV
  Out of plane potentials    =           0.00000000 eV
  Monopole - monopole (real) =         -20.32470202 eV
  Monopole - monopole (recip)=         -53.64956315 eV
  Monopole - monopole (total)=         -73.97426517 eV
--------------------------------------------------------------------------------
  Total lattice energy       =          -3.75443710 eV
--------------------------------------------------------------------------------
  Total lattice energy       =            -362.2458 kJ/(mole unit cells)
--------------------------------------------------------------------------------

********************************************************************************
*  Output for configuration   6                                                *
********************************************************************************


  Components of energy : 

--------------------------------------------------------------------------------
  Interatomic potentials     =          60.59140084 eV
  Three-body potentials      =           0.06783856 eV
  Four-body potentials       =           0.00005581 eV
  Improper torsions          =           0.00000000 eV
  Out of plane potentials    =           0.00000000 eV
  Monopole - monopole (real) =         -20.08342065 eV
  Monopole - monopole (recip)=         -52.58080575 eV
  Monopole - monopole (total)=         -72.66422640 eV
--------------------------------------------------------------------------------
  Total lattice energy       =         -12.00493119 eV
--------------------------------------------------------------------------------
  Total lattice energy       =           -1158.2923 kJ/(mole unit cells)
--------------------------------------------------------------------------------

********************************************************************************
*  Output for configuration   7                                                *
********************************************************************************


  Components of energy : 

--------------------------------------------------------------------------------
  Interatomic potentials     =          72.94926449 eV
  Three-body potentials      =           0.06797557 eV
  Four-body potentials       =           0.00003369 eV
  Improper torsions          =           0.00000000 eV
  Out of plane potentials    =           0.00000000 eV
  Monopole - monopole (real) =         -20.33997262 eV
  Monopole - monopole (recip)=         -53.91976761 eV
  Monopole - monopole (total)=         -74.25974022 eV
--------------------------------------------------------------------------------
  Total lattice energy       =          -1.24246647 eV
--------------------------------------------------------------------------------
  Total lattice energy       =            -119.8790 kJ/(mole unit cells)
--------------------------------------------------------------------------------

********************************************************************************
*  Output for configuration   8                                                *
********************************************************************************


  Components of energy : 

--------------------------------------------------------------------------------
  Interatomic potentials     =          57.10515814 eV
  Three-body potentials      =           0.06677208 eV
  Four-body potentials       =           0.00007250 eV
  Improper torsions          =           0.00000000 eV
  Out of plane potentials    =           0.00000000 eV
  Monopole - monopole (real) =         -20.02516195 eV
  Monopole - monopole (recip)=         -52.14758386 eV
  Monopole - monopole (total)=         -72.17274581 eV
--------------------------------------------------------------------------------
  Total lattice energy       =         -15.00074309 eV
--------------------------------------------------------------------------------
  Total lattice energy       =           -1447.3424 kJ/(mole unit cells)
--------------------------------------------------------------------------------

********************************************************************************
*  Output for configuration   9                                                *
********************************************************************************


  Components of energy : 

--------------------------------------------------------------------------------
  Interatomic potentials     =          77.87848400 eV
  Three-body potentials      =           0.06695661 eV
  Four-body potentials       =           0.00002924 eV
  Improper torsions          =           0.00000000 eV
  Out of plane potentials    =           0.00000000 eV
  Monopole - monopole (real) =         -20.38042500 eV
  Monopole - monopole (recip)=         -54.37239984 eV
  Monopole - monopole (total)=         -74.75282484 eV
--------------------------------------------------------------------------------
  Total lattice energy       =           3.19264502 eV
--------------------------------------------------------------------------------
  Total lattice energy       =             308.0414 kJ/(mole unit cells)
--------------------------------------------------------------------------------

********************************************************************************
*  Output for configuration  10                                                *
********************************************************************************


  Components of energy : 

--------------------------------------------------------------------------------
  Interatomic potentials     =          54.00174689 eV
  Three-body potentials      =           0.06676320 eV
  Four-body potentials       =           0.00006309 eV
  Improper torsions          =           0.00000000 eV
  Out of plane potentials    =           0.00000000 eV
  Monopole - monopole (real) =         -20.06533168 eV
  Monopole - monopole (recip)=         -51.72116957 eV
  Monopole - monopole (total)=         -71.78650125 eV
--------------------------------------------------------------------------------
  Total lattice energy       =         -17.71792808 eV
--------------------------------------------------------------------------------
  Total lattice energy       =           -1709.5092 kJ/(mole unit cells)
--------------------------------------------------------------------------------

********************************************************************************
*  Output for configuration  11                                                *
********************************************************************************


  Components of energy : 

--------------------------------------------------------------------------------
  Interatomic potentials     =          51.06678091 eV
  Three-body potentials      =           0.05434501 eV
  Four-body potentials       =           0.00004314 eV
  Improper torsions          =           0.00000000 eV
  Out of plane potentials    =           0.00000000 eV
  Monopole - monopole (real) =         -20.25316049 eV
  Monopole - monopole (recip)=         -50.88873475 eV
  Monopole - monopole (total)=         -71.14189524 eV
--------------------------------------------------------------------------------
  Total lattice energy       =         -20.02072618 eV
--------------------------------------------------------------------------------
  Total lattice energy       =           -1931.6940 kJ/(mole unit cells)
--------------------------------------------------------------------------------

********************************************************************************
*  Output for configuration  12                                                *
********************************************************************************


  Components of energy : 

--------------------------------------------------------------------------------
  Interatomic potentials     =          88.95956244 eV
  Three-body potentials      =           0.07096630 eV
  Four-body potentials       =           0.00001813 eV
  Improper torsions          =           0.00000000 eV
  Out of plane potentials    =           0.00000000 eV
  Monopole - monopole (real) =         -20.45096976 eV
  Monopole - monopole (recip)=         -55.28496744 eV
  Monopole - monopole (total)=         -75.73593721 eV
--------------------------------------------------------------------------------
  Total lattice energy       =          13.29460966 eV
--------------------------------------------------------------------------------
  Total lattice energy       =            1282.7266 kJ/(mole unit cells)
--------------------------------------------------------------------------------

********************************************************************************
*  Output for configuration  13                                                *
********************************************************************************


  Components of energy : 

--------------------------------------------------------------------------------
  Interatomic potentials     =          48.50785706 eV
  Three-body potentials      =           0.03991978 eV
  Four-body potentials       =           0.00014417 eV
  Improper torsions          =           0.00000000 eV
  Out of plane potentials    =           0.00000000 eV
  Monopole - monopole (real) =         -20.68949485 eV
  Monopole - monopole (recip)=         -50.07707889 eV
  Monopole - monopole (total)=         -70.76657374 eV
--------------------------------------------------------------------------------
  Total lattice energy       =         -22.21865273 eV
--------------------------------------------------------------------------------
  Total lattice energy       =           -2143.7603 kJ/(mole unit cells)
--------------------------------------------------------------------------------

********************************************************************************
*  Output for configuration  14                                                *
********************************************************************************


  Components of energy : 

--------------------------------------------------------------------------------
  Interatomic potentials     =          45.76446959 eV
  Three-body potentials      =           0.03312729 eV
  Four-body potentials       =           0.00052971 eV
  Improper torsions          =           0.00000000 eV
  Out of plane potentials    =           0.00000000 eV
  Monopole - monopole (real) =         -21.04254112 eV
  Monopole - monopole (recip)=         -49.29223928 eV
  Monopole - monopole (total)=         -70.33478040 eV
--------------------------------------------------------------------------------
  Total lattice energy       =         -24.53665381 eV
--------------------------------------------------------------------------------
  Total lattice energy       =           -2367.4120 kJ/(mole unit cells)
--------------------------------------------------------------------------------

********************************************************************************
*  Output for configuration  15                                                *
********************************************************************************


  Components of energy : 

--------------------------------------------------------------------------------
  Interatomic potentials     =          43.62502959 eV
  Three-body potentials      =           0.02125193 eV
  Four-body potentials       =           0.00079749 eV
  Improper torsions          =           0.00000000 eV
  Out of plane potentials    =           0.00000000 eV
  Monopole - monopole (real) =         -21.42224670 eV
  Monopole - monopole (recip)=         -48.53042661 eV
  Monopole - monopole (total)=         -69.95267331 eV
--------------------------------------------------------------------------------
  Total lattice energy       =         -26.30559430 eV
--------------------------------------------------------------------------------
  Total lattice energy       =           -2538.0877 kJ/(mole unit cells)
--------------------------------------------------------------------------------

********************************************************************************
*  Output for configuration  16                                                *
********************************************************************************


  Components of energy : 

--------------------------------------------------------------------------------
  Interatomic potentials     =         101.39676598 eV
  Three-body potentials      =           0.06406754 eV
  Four-body potentials       =           0.00001060 eV
  Improper torsions          =           0.00000000 eV
  Out of plane potentials    =           0.00000000 eV
  Monopole - monopole (real) =         -20.50141465 eV
  Monopole - monopole (recip)=         -56.24581471 eV
  Monopole - monopole (total)=         -76.74722936 eV
--------------------------------------------------------------------------------
  Total lattice energy       =          24.71361476 eV
--------------------------------------------------------------------------------
  Total lattice energy       =            2384.4860 kJ/(mole unit cells)
--------------------------------------------------------------------------------

********************************************************************************
*  Output for configuration  17                                                *
********************************************************************************


  Components of energy : 

--------------------------------------------------------------------------------
  Interatomic potentials     =         116.16224564 eV
  Three-body potentials      =           0.06496443 eV
  Four-body potentials       =           0.00004057 eV
  Improper torsions          =           0.00000000 eV
  Out of plane potentials    =           0.00000000 eV
  Monopole - monopole (real) =         -20.49842683 eV
  Monopole - monopole (recip)=         -57.20679942 eV
  Monopole - monopole (total)=         -77.70522625 eV
--------------------------------------------------------------------------------
  Total lattice energy       =          38.52202439 eV
--------------------------------------------------------------------------------
  Total lattice energy       =            3716.7865 kJ/(mole unit cells)
--------------------------------------------------------------------------------

  Peak dynamic memory used =       1.14 MB 


  Timing analysis for GULP :

--------------------------------------------------------------------------------
  Task / Subroutine                                          Time (Seconds)
--------------------------------------------------------------------------------
  Calculation of reciprocal space energy and derivatives          0.7840
  Calculation of real space energy and derivatives                7.3746
  Calculation of three-body energy and derivatives                2.0798
  Calculation of four-body energy and derivatives                 3.2580
  Calculation of molecules and connectivity                       0.3686
  Sum of squares for fitting                                      0.3644
  Global summation overhead                                       0.9097
--------------------------------------------------------------------------------
  Total CPU time                                                 15.1327
--------------------------------------------------------------------------------


  Dump file written as out.res                                                 


  Job Finished at 18:55.58  8th May        2018                               

